
     Program BANDS v.6.4.1 starts on  1Oct2020 at 22:55:46 

     This program is part of the open-source Quantum ESPRESSO suite
     for quantum simulation of materials; please cite
         "P. Giannozzi et al., J. Phys.:Condens. Matter 21 395502 (2009);
         "P. Giannozzi et al., J. Phys.:Condens. Matter 29 465901 (2017);
          URL http://www.quantum-espresso.org", 
     in publications or presentations arising from this work. More details at
     http://www.quantum-espresso.org/quote

     Parallel version (MPI), running on    16 processors

     MPI processes distributed on     1 nodes
     R & G space division:  proc/nbgrp/npool/nimage =      16

     Reading data from directory:
     ./temp/kaol.save/

     IMPORTANT: XC functional enforced from input :
     Exchange-correlation      = WC ( 1  4 11  4 0 0)
     Any further DFT definition will be discarded
     Please, verify this is what you really want

 
     Parallelization info
     --------------------
     sticks:   dense  smooth     PW     G-vecs:    dense   smooth      PW
     Min         529     265     72                94356    33362    4742
     Max         530     266     73                94362    33365    4746
     Sum        8469    4241   1157              1509749   533819   75895
 

     negative rho (up, down):  9.705E-03 0.000E+00
     high-symmetry point:  0.0000-0.5000 0.0000   x coordinate   0.0000
     high-symmetry point:  0.0000 0.0000 0.0000   x coordinate   0.5000
     high-symmetry point:  0.5000 0.0000 0.0000   x coordinate   1.0000
     high-symmetry point:  0.5000-0.5000 0.0000   x coordinate   1.5000
     high-symmetry point:  0.0000 0.0000 0.0000   x coordinate   2.2071
     high-symmetry point: -0.5000 0.0000 0.5000   x coordinate   2.9142
     high-symmetry point: -0.5000-0.5000 0.5000   x coordinate   3.4142
     high-symmetry point:  0.0000 0.0000 0.0000   x coordinate   4.2802
     high-symmetry point:  0.0000 0.0000 0.5000   x coordinate   4.7802
     high-symmetry point:  0.0000-0.5000 0.5000   x coordinate   5.2802
     high-symmetry point:  0.0000-0.1000 0.1000   x coordinate   5.8459
     high-symmetry point:  0.0000-0.5000 0.0500   x coordinate   5.8459
     high-symmetry point:  0.0000 0.0000 0.0000   x coordinate   5.8459

     Plottable bands (eV) written to file bands.dat.gnu
     Bands written to file bands.dat
