
     Program BANDS v.6.4.1 starts on  2Oct2020 at 17:56:24 

     This program is part of the open-source Quantum ESPRESSO suite
     for quantum simulation of materials; please cite
         "P. Giannozzi et al., J. Phys.:Condens. Matter 21 395502 (2009);
         "P. Giannozzi et al., J. Phys.:Condens. Matter 29 465901 (2017);
          URL http://www.quantum-espresso.org", 
     in publications or presentations arising from this work. More details at
     http://www.quantum-espresso.org/quote

     Parallel version (MPI), running on    16 processors

     MPI processes distributed on     1 nodes
     R & G space division:  proc/nbgrp/npool/nimage =      16

     Reading data from directory:
     ./temp/kaol.save/

     IMPORTANT: XC functional enforced from input :
     Exchange-correlation      = WC ( 1  4 11  4 0 0)
     Any further DFT definition will be discarded
     Please, verify this is what you really want

 
     Parallelization info
     --------------------
     sticks:   dense  smooth     PW     G-vecs:    dense   smooth      PW
     Min         264     132     39                13472     4763     767
     Max         265     133     40                13475     4764     769
     Sum        4227    2125    629               215577    76213   12287
 

     negative rho (up, down):  1.688E-07 0.000E+00
     high-symmetry point:  0.0000-0.5000 0.0000   x coordinate   0.0000
     high-symmetry point:  0.0000 0.0000 0.0000   x coordinate   0.5000
     high-symmetry point:  0.5000 0.0000 0.0000   x coordinate   1.0000
     high-symmetry point:  0.5000-0.5000 0.0000   x coordinate   1.5000
     high-symmetry point:  0.0000 0.0000 0.0000   x coordinate   2.2071
     high-symmetry point: -0.5000 0.0000 0.5000   x coordinate   2.9142
     high-symmetry point: -0.5000-0.5000 0.5000   x coordinate   3.4142
     high-symmetry point:  0.0000 0.0000 0.0000   x coordinate   4.2802
     high-symmetry point:  0.0000 0.0000 0.5000   x coordinate   4.7802
     high-symmetry point:  0.0000-0.5000 0.5000   x coordinate   5.2802
     high-symmetry point:  0.0000-0.1000 0.1000   x coordinate   5.8459
     high-symmetry point:  0.0000-0.5000 0.0500   x coordinate   5.8459
     high-symmetry point:  0.0000 0.0000 0.0000   x coordinate   5.8459

     Plottable bands (eV) written to file bands.dat.gnu
     Bands written to file bands.dat

 **************************************************************************

                    xk=(   0.00000,  -0.50000,   0.00000  )

     point group C_1 (1)    
     there are  1 classes
     the character table:

       E    
A      1.00

     the symmetry operations in each class and the name of the first element:

     E        1
                                                                 

     Band symmetry, C_1 (1)     point group:

     e(  1 -  1) =    -16.99197  eV     1   --> A              
     e(  2 -  2) =    -16.54245  eV     1   --> A              
     e(  3 -  3) =    -15.92572  eV     1   --> A              
     e(  4 -  4) =    -15.41401  eV     1   --> A              
     e(  5 -  5) =    -15.19530  eV     1   --> A              
     e(  6 -  6) =    -15.19469  eV     1   --> A              
     e(  7 -  7) =    -15.15991  eV     1   --> A              
     e(  8 -  8) =    -15.06171  eV     1   --> A              
     e(  9 -  9) =    -14.74870  eV     1   --> A              
     e( 10 - 10) =    -14.49537  eV     1   --> A              
     e( 11 - 11) =    -14.46136  eV     1   --> A              
     e( 12 - 12) =    -14.41065  eV     1   --> A              
     e( 13 - 13) =    -14.34640  eV     1   --> A              
     e( 14 - 14) =    -14.26778  eV     1   --> A              
     e( 15 - 15) =    -14.13808  eV     1   --> A              
     e( 16 - 16) =    -14.01433  eV     1   --> A              
     e( 17 - 17) =    -13.94270  eV     1   --> A              
     e( 18 - 18) =    -13.90481  eV     1   --> A              
     e( 19 - 19) =     -6.51080  eV     1   --> A              
     e( 20 - 20) =     -5.46602  eV     1   --> A              
     e( 21 - 21) =     -3.93380  eV     1   --> A              
     e( 22 - 22) =     -3.87195  eV     1   --> A              
     e( 23 - 23) =     -3.51181  eV     1   --> A              
     e( 24 - 24) =     -3.32967  eV     1   --> A              
     e( 25 - 25) =     -3.32262  eV     1   --> A              
     e( 26 - 26) =     -3.21280  eV     1   --> A              
     e( 27 - 27) =     -3.13506  eV     1   --> A              
     e( 28 - 28) =     -2.89140  eV     1   --> A              
     e( 29 - 29) =     -2.69005  eV     1   --> A              
     e( 30 - 30) =     -2.46581  eV     1   --> A              
     e( 31 - 31) =     -2.37873  eV     1   --> A              
     e( 32 - 32) =     -2.27537  eV     1   --> A              
     e( 33 - 33) =     -2.02732  eV     1   --> A              
     e( 34 - 34) =     -1.90668  eV     1   --> A              
     e( 35 - 35) =     -1.63644  eV     1   --> A              
     e( 36 - 36) =     -1.44946  eV     1   --> A              
     e( 37 - 37) =     -1.15414  eV     1   --> A              
     e( 38 - 38) =     -1.02667  eV     1   --> A              
     e( 39 - 39) =     -0.72698  eV     1   --> A              
     e( 40 - 40) =     -0.72665  eV     1   --> A              
     e( 41 - 41) =     -0.52207  eV     1   --> A              
     e( 42 - 42) =     -0.41124  eV     1   --> A              
     e( 43 - 43) =     -0.09138  eV     1   --> A              
     e( 44 - 44) =      0.04923  eV     1   --> A              
     e( 45 - 45) =      0.08566  eV     1   --> A              
     e( 46 - 46) =      0.28966  eV     1   --> A              
     e( 47 - 47) =      0.32108  eV     1   --> A              
     e( 48 - 48) =      0.42136  eV     1   --> A              
     e( 49 - 49) =      0.51630  eV     1   --> A              
     e( 50 - 50) =      0.54443  eV     1   --> A              
     e( 51 - 51) =      0.72308  eV     1   --> A              
     e( 52 - 52) =      0.80287  eV     1   --> A              
     e( 53 - 53) =      0.93954  eV     1   --> A              
     e( 54 - 54) =      0.94140  eV     1   --> A              
     e( 55 - 55) =      1.31305  eV     1   --> A              
     e( 56 - 56) =      1.40997  eV     1   --> A              
     e( 57 - 57) =      1.42801  eV     1   --> A              
     e( 58 - 58) =      1.46964  eV     1   --> A              
     e( 59 - 59) =      1.56542  eV     1   --> A              
     e( 60 - 60) =      1.69344  eV     1   --> A              
     e( 61 - 61) =      1.86886  eV     1   --> A              
     e( 62 - 62) =      1.87187  eV     1   --> A              
     e( 63 - 63) =      2.04654  eV     1   --> A              
     e( 64 - 64) =      2.24934  eV     1   --> A              
     e( 65 - 65) =      2.26467  eV     1   --> A              
     e( 66 - 66) =      2.35018  eV     1   --> A              
     e( 67 - 67) =      2.45032  eV     1   --> A              
     e( 68 - 68) =      2.53976  eV     1   --> A              
     e( 69 - 69) =      2.67432  eV     1   --> A              
     e( 70 - 70) =      2.87685  eV     1   --> A              
     e( 71 - 71) =      2.92055  eV     1   --> A              
     e( 72 - 72) =      2.99232  eV     1   --> A              
     e( 73 - 73) =      7.96004  eV     1   --> A              
     e( 74 - 74) =      9.83340  eV     1   --> A              
     e( 75 - 75) =     10.76107  eV     1   --> A              
     e( 76 - 76) =     10.81967  eV     1   --> A              
     e( 77 - 77) =     11.23786  eV     1   --> A              
     e( 78 - 78) =     11.26267  eV     1   --> A              
     e( 79 - 79) =     11.55651  eV     1   --> A              
     e( 80 - 80) =     11.58212  eV     1   --> A              
     e( 81 - 81) =     11.77780  eV     1   --> A              
     e( 82 - 82) =     11.94077  eV     1   --> A              
     e( 83 - 83) =     12.12389  eV     1   --> A              
     e( 84 - 84) =     12.38470  eV     1   --> A              
     e( 85 - 85) =     12.47339  eV     1   --> A              
     e( 86 - 86) =     12.60644  eV     1   --> A              
     e( 87 - 87) =     12.74934  eV     1   --> A              
     e( 88 - 88) =     12.76525  eV     1   --> A              
     e( 89 - 89) =     12.92664  eV     1   --> A              
     e( 90 - 90) =     13.20518  eV     1   --> A              
     e( 91 - 91) =     13.46599  eV     1   --> A              
     e( 92 - 92) =     13.77233  eV     1   --> A              
     e( 93 - 93) =     13.87573  eV     1   --> A              
     e( 94 - 94) =     14.11251  eV     1   --> A              
     e( 95 - 95) =     14.34509  eV     1   --> A              
     e( 96 - 96) =     14.37776  eV     1   --> A              
     e( 97 - 97) =     14.59936  eV     1   --> A              
     e( 98 - 98) =     14.80029  eV     1   --> A              
     e( 99 - 99) =     14.87344  eV     1   --> A              
     e(100 -100) =     15.15599  eV     1   --> A              
     e(101 -101) =     15.20259  eV     1   --> A              
     e(102 -102) =     15.53074  eV     1   --> A              
     e(103 -103) =     15.61689  eV     1   --> A              
     e(104 -104) =     15.76127  eV     1   --> A              
     e(105 -105) =     15.85551  eV     1   --> A              
     e(106 -106) =     15.91537  eV     1   --> A              
     e(107 -107) =     16.07180  eV     1   --> A              
     e(108 -108) =     16.08813  eV     1   --> A              
     e(109 -109) =     16.27128  eV     1   --> A              
     e(110 -110) =     16.31311  eV     1   --> A              
     e(111 -111) =     16.59502  eV     1   --> A              
     e(112 -112) =     16.61265  eV     1   --> A              
     e(113 -113) =     16.76559  eV     1   --> A              
     e(114 -114) =     16.85752  eV     1   --> A              
     e(115 -115) =     16.96287  eV     1   --> A              
     e(116 -116) =     17.01763  eV     1   --> A              
     e(117 -117) =     17.01787  eV     1   --> A              
     e(118 -118) =     17.33108  eV     1   --> A              
     e(119 -119) =     17.35627  eV     1   --> A              
     e(120 -120) =     17.65851  eV     1   --> A              
     e(121 -121) =     17.72148  eV     1   --> A              
     e(122 -122) =     17.84589  eV     1   --> A              
     e(123 -123) =     17.87896  eV     1   --> A              
     e(124 -124) =     18.09115  eV     1   --> A              
     e(125 -125) =     18.51471  eV     1   --> A              
     e(126 -126) =     18.96300  eV     1   --> A              
     e(127 -127) =     19.01702  eV     1   --> A              
     e(128 -128) =     19.13703  eV     1   --> A              
     e(129 -129) =     19.20779  eV     1   --> A              
     e(130 -130) =     19.41486  eV     1   --> A              
     e(131 -131) =     19.60903  eV     1   --> A              
     e(132 -132) =     19.96352  eV     1   --> A              
     e(133 -133) =     20.06673  eV     1   --> A              
     e(134 -134) =     20.25424  eV     1   --> A              
     e(135 -135) =     20.40570  eV     1   --> A              
     e(136 -136) =     20.60071  eV     1   --> A              
     e(137 -137) =     20.61338  eV     1   --> A              
     e(138 -138) =     20.86171  eV     1   --> A              
     e(139 -139) =     21.08166  eV     1   --> A              
     e(140 -140) =     21.41811  eV     1   --> A              
     e(141 -141) =     21.68310  eV     1   --> A              
     e(142 -142) =     21.76985  eV     1   --> A              
     e(143 -143) =     21.99854  eV     1   --> A              
     e(144 -144) =     22.01812  eV     1   --> A              

 **************************************************************************

 **************************************************************************

                    xk=(   0.00000,  -0.45000,   0.00000  )

     Band symmetry, C_1 (1)     point group:

     e(  1 -  1) =    -16.96919  eV     1   --> A              
     e(  2 -  2) =    -16.60490  eV     1   --> A              
     e(  3 -  3) =    -15.84536  eV     1   --> A              
     e(  4 -  4) =    -15.39995  eV     1   --> A              
     e(  5 -  5) =    -15.24097  eV     1   --> A              
     e(  6 -  6) =    -15.19956  eV     1   --> A              
     e(  7 -  7) =    -15.16120  eV     1   --> A              
     e(  8 -  8) =    -15.10128  eV     1   --> A              
     e(  9 -  9) =    -14.70390  eV     1   --> A              
     e( 10 - 10) =    -14.49067  eV     1   --> A              
     e( 11 - 11) =    -14.46133  eV     1   --> A              
     e( 12 - 12) =    -14.40807  eV     1   --> A              
     e( 13 - 13) =    -14.35298  eV     1   --> A              
     e( 14 - 14) =    -14.29827  eV     1   --> A              
     e( 15 - 15) =    -14.11282  eV     1   --> A              
     e( 16 - 16) =    -14.01900  eV     1   --> A              
     e( 17 - 17) =    -13.93982  eV     1   --> A              
     e( 18 - 18) =    -13.90730  eV     1   --> A              
     e( 19 - 19) =     -6.44865  eV     1   --> A              
     e( 20 - 20) =     -5.58273  eV     1   --> A              
     e( 21 - 21) =     -3.88800  eV     1   --> A              
     e( 22 - 22) =     -3.86541  eV     1   --> A              
     e( 23 - 23) =     -3.49492  eV     1   --> A              
     e( 24 - 24) =     -3.33823  eV     1   --> A              
     e( 25 - 25) =     -3.31521  eV     1   --> A              
     e( 26 - 26) =     -3.18640  eV     1   --> A              
     e( 27 - 27) =     -3.15805  eV     1   --> A              
     e( 28 - 28) =     -2.90881  eV     1   --> A              
     e( 29 - 29) =     -2.68680  eV     1   --> A              
     e( 30 - 30) =     -2.42259  eV     1   --> A              
     e( 31 - 31) =     -2.40994  eV     1   --> A              
     e( 32 - 32) =     -2.23657  eV     1   --> A              
     e( 33 - 33) =     -2.06650  eV     1   --> A              
     e( 34 - 34) =     -1.91821  eV     1   --> A              
     e( 35 - 35) =     -1.59972  eV     1   --> A              
     e( 36 - 36) =     -1.47448  eV     1   --> A              
     e( 37 - 37) =     -1.19706  eV     1   --> A              
     e( 38 - 38) =     -1.08912  eV     1   --> A              
     e( 39 - 39) =     -0.73757  eV     1   --> A              
     e( 40 - 40) =     -0.70105  eV     1   --> A              
     e( 41 - 41) =     -0.44994  eV     1   --> A              
     e( 42 - 42) =     -0.37265  eV     1   --> A              
     e( 43 - 43) =     -0.08995  eV     1   --> A              
     e( 44 - 44) =      0.05572  eV     1   --> A              
     e( 45 - 45) =      0.08912  eV     1   --> A              
     e( 46 - 46) =      0.33620  eV     1   --> A              
     e( 47 - 47) =      0.34226  eV     1   --> A              
     e( 48 - 48) =      0.35729  eV     1   --> A              
     e( 49 - 49) =      0.50858  eV     1   --> A              
     e( 50 - 50) =      0.55204  eV     1   --> A              
     e( 51 - 51) =      0.72171  eV     1   --> A              
     e( 52 - 52) =      0.81035  eV     1   --> A              
     e( 53 - 53) =      0.94270  eV     1   --> A              
     e( 54 - 54) =      0.95880  eV     1   --> A              
     e( 55 - 55) =      1.30688  eV     1   --> A              
     e( 56 - 56) =      1.37533  eV     1   --> A              
     e( 57 - 57) =      1.43308  eV     1   --> A              
     e( 58 - 58) =      1.45389  eV     1   --> A              
     e( 59 - 59) =      1.55224  eV     1   --> A              
     e( 60 - 60) =      1.71726  eV     1   --> A              
     e( 61 - 61) =      1.86031  eV     1   --> A              
     e( 62 - 62) =      1.90516  eV     1   --> A              
     e( 63 - 63) =      2.01318  eV     1   --> A              
     e( 64 - 64) =      2.23086  eV     1   --> A              
     e( 65 - 65) =      2.24922  eV     1   --> A              
     e( 66 - 66) =      2.31458  eV     1   --> A              
     e( 67 - 67) =      2.47030  eV     1   --> A              
     e( 68 - 68) =      2.57172  eV     1   --> A              
     e( 69 - 69) =      2.69788  eV     1   --> A              
     e( 70 - 70) =      2.84785  eV     1   --> A              
     e( 71 - 71) =      2.90638  eV     1   --> A              
     e( 72 - 72) =      2.97066  eV     1   --> A              
     e( 73 - 73) =      8.07576  eV     1   --> A              
     e( 74 - 74) =      9.58311  eV     1   --> A              
     e( 75 - 75) =     10.87577  eV     1   --> A              
     e( 76 - 76) =     10.92510  eV     1   --> A              
     e( 77 - 77) =     11.26890  eV     1   --> A              
     e( 78 - 78) =     11.29572  eV     1   --> A              
     e( 79 - 79) =     11.55198  eV     1   --> A              
     e( 80 - 80) =     11.57964  eV     1   --> A              
     e( 81 - 81) =     11.80390  eV     1   --> A              
     e( 82 - 82) =     11.94277  eV     1   --> A              
     e( 83 - 83) =     12.08495  eV     1   --> A              
     e( 84 - 84) =     12.36223  eV     1   --> A              
     e( 85 - 85) =     12.50540  eV     1   --> A              
     e( 86 - 86) =     12.59222  eV     1   --> A              
     e( 87 - 87) =     12.73239  eV     1   --> A              
     e( 88 - 88) =     12.74507  eV     1   --> A              
     e( 89 - 89) =     12.99233  eV     1   --> A              
     e( 90 - 90) =     13.18924  eV     1   --> A              
     e( 91 - 91) =     13.48174  eV     1   --> A              
     e( 92 - 92) =     13.74953  eV     1   --> A              
     e( 93 - 93) =     13.82105  eV     1   --> A              
     e( 94 - 94) =     13.99662  eV     1   --> A              
     e( 95 - 95) =     14.28816  eV     1   --> A              
     e( 96 - 96) =     14.29310  eV     1   --> A              
     e( 97 - 97) =     14.57329  eV     1   --> A              
     e( 98 - 98) =     14.81046  eV     1   --> A              
     e( 99 - 99) =     14.90494  eV     1   --> A              
     e(100 -100) =     15.18620  eV     1   --> A              
     e(101 -101) =     15.25084  eV     1   --> A              
     e(102 -102) =     15.49945  eV     1   --> A              
     e(103 -103) =     15.59776  eV     1   --> A              
     e(104 -104) =     15.76916  eV     1   --> A              
     e(105 -105) =     15.87343  eV     1   --> A              
     e(106 -106) =     15.95236  eV     1   --> A              
     e(107 -107) =     16.14031  eV     1   --> A              
     e(108 -108) =     16.17781  eV     1   --> A              
     e(109 -109) =     16.33024  eV     1   --> A              
     e(110 -110) =     16.35752  eV     1   --> A              
     e(111 -111) =     16.56926  eV     1   --> A              
     e(112 -112) =     16.60394  eV     1   --> A              
     e(113 -113) =     16.76663  eV     1   --> A              
     e(114 -114) =     16.88671  eV     1   --> A              
     e(115 -115) =     16.96719  eV     1   --> A              
     e(116 -116) =     17.00869  eV     1   --> A              
     e(117 -117) =     17.08919  eV     1   --> A              
     e(118 -118) =     17.32201  eV     1   --> A              
     e(119 -119) =     17.35057  eV     1   --> A              
     e(120 -120) =     17.70264  eV     1   --> A              
     e(121 -121) =     17.70551  eV     1   --> A              
     e(122 -122) =     17.80938  eV     1   --> A              
     e(123 -123) =     17.86799  eV     1   --> A              
     e(124 -124) =     18.04853  eV     1   --> A              
     e(125 -125) =     18.49234  eV     1   --> A              
     e(126 -126) =     18.87346  eV     1   --> A              
     e(127 -127) =     19.01593  eV     1   --> A              
     e(128 -128) =     19.09837  eV     1   --> A              
     e(129 -129) =     19.26346  eV     1   --> A              
     e(130 -130) =     19.45067  eV     1   --> A              
     e(131 -131) =     19.57143  eV     1   --> A              
     e(132 -132) =     19.93496  eV     1   --> A              
     e(133 -133) =     19.97437  eV     1   --> A              
     e(134 -134) =     20.29284  eV     1   --> A              
     e(135 -135) =     20.29439  eV     1   --> A              
     e(136 -136) =     20.46514  eV     1   --> A              
     e(137 -137) =     20.69643  eV     1   --> A              
     e(138 -138) =     20.94477  eV     1   --> A              
     e(139 -139) =     21.08272  eV     1   --> A              
     e(140 -140) =     21.45881  eV     1   --> A              
     e(141 -141) =     21.67110  eV     1   --> A              
     e(142 -142) =     21.75165  eV     1   --> A              
     e(143 -143) =     22.04746  eV     1   --> A              
     e(144 -144) =     22.05907  eV     1   --> A              

 **************************************************************************

 **************************************************************************

                    xk=(   0.00000,  -0.40000,   0.00000  )

     Band symmetry, C_1 (1)     point group:

     e(  1 -  1) =    -16.93556  eV     1   --> A              
     e(  2 -  2) =    -16.67512  eV     1   --> A              
     e(  3 -  3) =    -15.74948  eV     1   --> A              
     e(  4 -  4) =    -15.38543  eV     1   --> A              
     e(  5 -  5) =    -15.29991  eV     1   --> A              
     e(  6 -  6) =    -15.21236  eV     1   --> A              
     e(  7 -  7) =    -15.16218  eV     1   --> A              
     e(  8 -  8) =    -15.13663  eV     1   --> A              
     e(  9 -  9) =    -14.65471  eV     1   --> A              
     e( 10 - 10) =    -14.49501  eV     1   --> A              
     e( 11 - 11) =    -14.45474  eV     1   --> A              
     e( 12 - 12) =    -14.40511  eV     1   --> A              
     e( 13 - 13) =    -14.36052  eV     1   --> A              
     e( 14 - 14) =    -14.32896  eV     1   --> A              
     e( 15 - 15) =    -14.08900  eV     1   --> A              
     e( 16 - 16) =    -14.02580  eV     1   --> A              
     e( 17 - 17) =    -13.93567  eV     1   --> A              
     e( 18 - 18) =    -13.91106  eV     1   --> A              
     e( 19 - 19) =     -6.35845  eV     1   --> A              
     e( 20 - 20) =     -5.72772  eV     1   --> A              
     e( 21 - 21) =     -3.85650  eV     1   --> A              
     e( 22 - 22) =     -3.85194  eV     1   --> A              
     e( 23 - 23) =     -3.46718  eV     1   --> A              
     e( 24 - 24) =     -3.35178  eV     1   --> A              
     e( 25 - 25) =     -3.30241  eV     1   --> A              
     e( 26 - 26) =     -3.18513  eV     1   --> A              
     e( 27 - 27) =     -3.14727  eV     1   --> A              
     e( 28 - 28) =     -2.93380  eV     1   --> A              
     e( 29 - 29) =     -2.67613  eV     1   --> A              
     e( 30 - 30) =     -2.47753  eV     1   --> A              
     e( 31 - 31) =     -2.35139  eV     1   --> A              
     e( 32 - 32) =     -2.17580  eV     1   --> A              
     e( 33 - 33) =     -2.11785  eV     1   --> A              
     e( 34 - 34) =     -1.93092  eV     1   --> A              
     e( 35 - 35) =     -1.56658  eV     1   --> A              
     e( 36 - 36) =     -1.50173  eV     1   --> A              
     e( 37 - 37) =     -1.24148  eV     1   --> A              
     e( 38 - 38) =     -1.15159  eV     1   --> A              
     e( 39 - 39) =     -0.74260  eV     1   --> A              
     e( 40 - 40) =     -0.69649  eV     1   --> A              
     e( 41 - 41) =     -0.35739  eV     1   --> A              
     e( 42 - 42) =     -0.31636  eV     1   --> A              
     e( 43 - 43) =     -0.09623  eV     1   --> A              
     e( 44 - 44) =      0.05354  eV     1   --> A              
     e( 45 - 45) =      0.10639  eV     1   --> A              
     e( 46 - 46) =      0.27081  eV     1   --> A              
     e( 47 - 47) =      0.37496  eV     1   --> A              
     e( 48 - 48) =      0.37651  eV     1   --> A              
     e( 49 - 49) =      0.50480  eV     1   --> A              
     e( 50 - 50) =      0.56211  eV     1   --> A              
     e( 51 - 51) =      0.71399  eV     1   --> A              
     e( 52 - 52) =      0.80963  eV     1   --> A              
     e( 53 - 53) =      0.95120  eV     1   --> A              
     e( 54 - 54) =      0.98907  eV     1   --> A              
     e( 55 - 55) =      1.28946  eV     1   --> A              
     e( 56 - 56) =      1.30267  eV     1   --> A              
     e( 57 - 57) =      1.44336  eV     1   --> A              
     e( 58 - 58) =      1.46292  eV     1   --> A              
     e( 59 - 59) =      1.55743  eV     1   --> A              
     e( 60 - 60) =      1.76576  eV     1   --> A              
     e( 61 - 61) =      1.82947  eV     1   --> A              
     e( 62 - 62) =      1.93603  eV     1   --> A              
     e( 63 - 63) =      1.98071  eV     1   --> A              
     e( 64 - 64) =      2.17307  eV     1   --> A              
     e( 65 - 65) =      2.24976  eV     1   --> A              
     e( 66 - 66) =      2.28632  eV     1   --> A              
     e( 67 - 67) =      2.49757  eV     1   --> A              
     e( 68 - 68) =      2.59562  eV     1   --> A              
     e( 69 - 69) =      2.72727  eV     1   --> A              
     e( 70 - 70) =      2.81427  eV     1   --> A              
     e( 71 - 71) =      2.89342  eV     1   --> A              
     e( 72 - 72) =      2.94183  eV     1   --> A              
     e( 73 - 73) =      8.23921  eV     1   --> A              
     e( 74 - 74) =      9.31695  eV     1   --> A              
     e( 75 - 75) =     10.94738  eV     1   --> A              
     e( 76 - 76) =     11.04699  eV     1   --> A              
     e( 77 - 77) =     11.30744  eV     1   --> A              
     e( 78 - 78) =     11.33391  eV     1   --> A              
     e( 79 - 79) =     11.54968  eV     1   --> A              
     e( 80 - 80) =     11.56954  eV     1   --> A              
     e( 81 - 81) =     11.86519  eV     1   --> A              
     e( 82 - 82) =     11.94601  eV     1   --> A              
     e( 83 - 83) =     12.03986  eV     1   --> A              
     e( 84 - 84) =     12.33492  eV     1   --> A              
     e( 85 - 85) =     12.52791  eV     1   --> A              
     e( 86 - 86) =     12.53153  eV     1   --> A              
     e( 87 - 87) =     12.70849  eV     1   --> A              
     e( 88 - 88) =     12.75088  eV     1   --> A              
     e( 89 - 89) =     13.09135  eV     1   --> A              
     e( 90 - 90) =     13.18976  eV     1   --> A              
     e( 91 - 91) =     13.49442  eV     1   --> A              
     e( 92 - 92) =     13.70382  eV     1   --> A              
     e( 93 - 93) =     13.71840  eV     1   --> A              
     e( 94 - 94) =     13.90231  eV     1   --> A              
     e( 95 - 95) =     14.22457  eV     1   --> A              
     e( 96 - 96) =     14.24425  eV     1   --> A              
     e( 97 - 97) =     14.55295  eV     1   --> A              
     e( 98 - 98) =     14.73342  eV     1   --> A              
     e( 99 - 99) =     15.00296  eV     1   --> A              
     e(100 -100) =     15.19933  eV     1   --> A              
     e(101 -101) =     15.29840  eV     1   --> A              
     e(102 -102) =     15.46846  eV     1   --> A              
     e(103 -103) =     15.59844  eV     1   --> A              
     e(104 -104) =     15.75456  eV     1   --> A              
     e(105 -105) =     15.91317  eV     1   --> A              
     e(106 -106) =     16.00058  eV     1   --> A              
     e(107 -107) =     16.21025  eV     1   --> A              
     e(108 -108) =     16.24172  eV     1   --> A              
     e(109 -109) =     16.39401  eV     1   --> A              
     e(110 -110) =     16.40506  eV     1   --> A              
     e(111 -111) =     16.53795  eV     1   --> A              
     e(112 -112) =     16.63489  eV     1   --> A              
     e(113 -113) =     16.78724  eV     1   --> A              
     e(114 -114) =     16.86443  eV     1   --> A              
     e(115 -115) =     16.95440  eV     1   --> A              
     e(116 -116) =     17.00954  eV     1   --> A              
     e(117 -117) =     17.19427  eV     1   --> A              
     e(118 -118) =     17.31423  eV     1   --> A              
     e(119 -119) =     17.36697  eV     1   --> A              
     e(120 -120) =     17.65949  eV     1   --> A              
     e(121 -121) =     17.74100  eV     1   --> A              
     e(122 -122) =     17.79092  eV     1   --> A              
     e(123 -123) =     17.87093  eV     1   --> A              
     e(124 -124) =     17.97580  eV     1   --> A              
     e(125 -125) =     18.46848  eV     1   --> A              
     e(126 -126) =     18.77515  eV     1   --> A              
     e(127 -127) =     19.00438  eV     1   --> A              
     e(128 -128) =     19.04991  eV     1   --> A              
     e(129 -129) =     19.33907  eV     1   --> A              
     e(130 -130) =     19.48319  eV     1   --> A              
     e(131 -131) =     19.55368  eV     1   --> A              
     e(132 -132) =     19.86546  eV     1   --> A              
     e(133 -133) =     19.91798  eV     1   --> A              
     e(134 -134) =     20.19021  eV     1   --> A              
     e(135 -135) =     20.31008  eV     1   --> A              
     e(136 -136) =     20.32527  eV     1   --> A              
     e(137 -137) =     20.78200  eV     1   --> A              
     e(138 -138) =     20.99718  eV     1   --> A              
     e(139 -139) =     21.13332  eV     1   --> A              
     e(140 -140) =     21.51628  eV     1   --> A              
     e(141 -141) =     21.68513  eV     1   --> A              
     e(142 -142) =     21.71576  eV     1   --> A              
     e(143 -143) =     22.05423  eV     1   --> A              
     e(144 -144) =     22.10085  eV     1   --> A              

 **************************************************************************

 **************************************************************************

                    xk=(   0.00000,  -0.35000,   0.00000  )

     Band symmetry, C_1 (1)     point group:

     e(  1 -  1) =    -16.89164  eV     1   --> A              
     e(  2 -  2) =    -16.74488  eV     1   --> A              
     e(  3 -  3) =    -15.64773  eV     1   --> A              
     e(  4 -  4) =    -15.41549  eV     1   --> A              
     e(  5 -  5) =    -15.32267  eV     1   --> A              
     e(  6 -  6) =    -15.24048  eV     1   --> A              
     e(  7 -  7) =    -15.16276  eV     1   --> A              
     e(  8 -  8) =    -15.15561  eV     1   --> A              
     e(  9 -  9) =    -14.60700  eV     1   --> A              
     e( 10 - 10) =    -14.51401  eV     1   --> A              
     e( 11 - 11) =    -14.43881  eV     1   --> A              
     e( 12 - 12) =    -14.40443  eV     1   --> A              
     e( 13 - 13) =    -14.36728  eV     1   --> A              
     e( 14 - 14) =    -14.35528  eV     1   --> A              
     e( 15 - 15) =    -14.06831  eV     1   --> A              
     e( 16 - 16) =    -14.03501  eV     1   --> A              
     e( 17 - 17) =    -13.93056  eV     1   --> A              
     e( 18 - 18) =    -13.91589  eV     1   --> A              
     e( 19 - 19) =     -6.24346  eV     1   --> A              
     e( 20 - 20) =     -5.88358  eV     1   --> A              
     e( 21 - 21) =     -3.84673  eV     1   --> A              
     e( 22 - 22) =     -3.83436  eV     1   --> A              
     e( 23 - 23) =     -3.43484  eV     1   --> A              
     e( 24 - 24) =     -3.36986  eV     1   --> A              
     e( 25 - 25) =     -3.28339  eV     1   --> A              
     e( 26 - 26) =     -3.21286  eV     1   --> A              
     e( 27 - 27) =     -3.09686  eV     1   --> A              
     e( 28 - 28) =     -2.97101  eV     1   --> A              
     e( 29 - 29) =     -2.65211  eV     1   --> A              
     e( 30 - 30) =     -2.53595  eV     1   --> A              
     e( 31 - 31) =     -2.29561  eV     1   --> A              
     e( 32 - 32) =     -2.17396  eV     1   --> A              
     e( 33 - 33) =     -2.10221  eV     1   --> A              
     e( 34 - 34) =     -1.95453  eV     1   --> A              
     e( 35 - 35) =     -1.54559  eV     1   --> A              
     e( 36 - 36) =     -1.52363  eV     1   --> A              
     e( 37 - 37) =     -1.26776  eV     1   --> A              
     e( 38 - 38) =     -1.20825  eV     1   --> A              
     e( 39 - 39) =     -0.73796  eV     1   --> A              
     e( 40 - 40) =     -0.70714  eV     1   --> A              
     e( 41 - 41) =     -0.25944  eV     1   --> A              
     e( 42 - 42) =     -0.25749  eV     1   --> A              
     e( 43 - 43) =     -0.10594  eV     1   --> A              
     e( 44 - 44) =      0.02426  eV     1   --> A              
     e( 45 - 45) =      0.12682  eV     1   --> A              
     e( 46 - 46) =      0.19584  eV     1   --> A              
     e( 47 - 47) =      0.40154  eV     1   --> A              
     e( 48 - 48) =      0.40724  eV     1   --> A              
     e( 49 - 49) =      0.50932  eV     1   --> A              
     e( 50 - 50) =      0.56372  eV     1   --> A              
     e( 51 - 51) =      0.71324  eV     1   --> A              
     e( 52 - 52) =      0.79375  eV     1   --> A              
     e( 53 - 53) =      0.97102  eV     1   --> A              
     e( 54 - 54) =      1.01544  eV     1   --> A              
     e( 55 - 55) =      1.24116  eV     1   --> A              
     e( 56 - 56) =      1.25933  eV     1   --> A              
     e( 57 - 57) =      1.44644  eV     1   --> A              
     e( 58 - 58) =      1.47985  eV     1   --> A              
     e( 59 - 59) =      1.59007  eV     1   --> A              
     e( 60 - 60) =      1.77176  eV     1   --> A              
     e( 61 - 61) =      1.83524  eV     1   --> A              
     e( 62 - 62) =      1.95781  eV     1   --> A              
     e( 63 - 63) =      1.96261  eV     1   --> A              
     e( 64 - 64) =      2.09617  eV     1   --> A              
     e( 65 - 65) =      2.25140  eV     1   --> A              
     e( 66 - 66) =      2.26795  eV     1   --> A              
     e( 67 - 67) =      2.52970  eV     1   --> A              
     e( 68 - 68) =      2.59870  eV     1   --> A              
     e( 69 - 69) =      2.75672  eV     1   --> A              
     e( 70 - 70) =      2.79380  eV     1   --> A              
     e( 71 - 71) =      2.88200  eV     1   --> A              
     e( 72 - 72) =      2.91078  eV     1   --> A              
     e( 73 - 73) =      8.44135  eV     1   --> A              
     e( 74 - 74) =      9.04973  eV     1   --> A              
     e( 75 - 75) =     11.02188  eV     1   --> A              
     e( 76 - 76) =     11.10332  eV     1   --> A              
     e( 77 - 77) =     11.34628  eV     1   --> A              
     e( 78 - 78) =     11.36497  eV     1   --> A              
     e( 79 - 79) =     11.55126  eV     1   --> A              
     e( 80 - 80) =     11.55681  eV     1   --> A              
     e( 81 - 81) =     11.93782  eV     1   --> A              
     e( 82 - 82) =     11.97508  eV     1   --> A              
     e( 83 - 83) =     11.99936  eV     1   --> A              
     e( 84 - 84) =     12.27755  eV     1   --> A              
     e( 85 - 85) =     12.47092  eV     1   --> A              
     e( 86 - 86) =     12.52878  eV     1   --> A              
     e( 87 - 87) =     12.70670  eV     1   --> A              
     e( 88 - 88) =     12.75290  eV     1   --> A              
     e( 89 - 89) =     13.20226  eV     1   --> A              
     e( 90 - 90) =     13.22790  eV     1   --> A              
     e( 91 - 91) =     13.47885  eV     1   --> A              
     e( 92 - 92) =     13.55689  eV     1   --> A              
     e( 93 - 93) =     13.70358  eV     1   --> A              
     e( 94 - 94) =     13.82734  eV     1   --> A              
     e( 95 - 95) =     14.18697  eV     1   --> A              
     e( 96 - 96) =     14.21244  eV     1   --> A              
     e( 97 - 97) =     14.55493  eV     1   --> A              
     e( 98 - 98) =     14.65823  eV     1   --> A              
     e( 99 - 99) =     15.08418  eV     1   --> A              
     e(100 -100) =     15.18952  eV     1   --> A              
     e(101 -101) =     15.33764  eV     1   --> A              
     e(102 -102) =     15.43737  eV     1   --> A              
     e(103 -103) =     15.62714  eV     1   --> A              
     e(104 -104) =     15.72584  eV     1   --> A              
     e(105 -105) =     15.95851  eV     1   --> A              
     e(106 -106) =     16.02614  eV     1   --> A              
     e(107 -107) =     16.25619  eV     1   --> A              
     e(108 -108) =     16.27244  eV     1   --> A              
     e(109 -109) =     16.43592  eV     1   --> A              
     e(110 -110) =     16.44279  eV     1   --> A              
     e(111 -111) =     16.56936  eV     1   --> A              
     e(112 -112) =     16.67841  eV     1   --> A              
     e(113 -113) =     16.78984  eV     1   --> A              
     e(114 -114) =     16.79879  eV     1   --> A              
     e(115 -115) =     16.97632  eV     1   --> A              
     e(116 -116) =     16.99146  eV     1   --> A              
     e(117 -117) =     17.27649  eV     1   --> A              
     e(118 -118) =     17.36948  eV     1   --> A              
     e(119 -119) =     17.37699  eV     1   --> A              
     e(120 -120) =     17.59742  eV     1   --> A              
     e(121 -121) =     17.73847  eV     1   --> A              
     e(122 -122) =     17.79654  eV     1   --> A              
     e(123 -123) =     17.88720  eV     1   --> A              
     e(124 -124) =     17.89094  eV     1   --> A              
     e(125 -125) =     18.47409  eV     1   --> A              
     e(126 -126) =     18.67312  eV     1   --> A              
     e(127 -127) =     18.98993  eV     1   --> A              
     e(128 -128) =     19.00749  eV     1   --> A              
     e(129 -129) =     19.41523  eV     1   --> A              
     e(130 -130) =     19.50054  eV     1   --> A              
     e(131 -131) =     19.56858  eV     1   --> A              
     e(132 -132) =     19.75893  eV     1   --> A              
     e(133 -133) =     19.92813  eV     1   --> A              
     e(134 -134) =     20.08604  eV     1   --> A              
     e(135 -135) =     20.23847  eV     1   --> A              
     e(136 -136) =     20.28173  eV     1   --> A              
     e(137 -137) =     20.85768  eV     1   --> A              
     e(138 -138) =     21.00170  eV     1   --> A              
     e(139 -139) =     21.28388  eV     1   --> A              
     e(140 -140) =     21.58710  eV     1   --> A              
     e(141 -141) =     21.66725  eV     1   --> A              
     e(142 -142) =     21.67848  eV     1   --> A              
     e(143 -143) =     22.01978  eV     1   --> A              
     e(144 -144) =     22.06305  eV     1   --> A              

 **************************************************************************

 **************************************************************************

                    xk=(   0.00000,  -0.30000,   0.00000  )

     Band symmetry, C_1 (1)     point group:

     e(  1 -  1) =    -16.83825  eV     1   --> A              
     e(  2 -  2) =    -16.80977  eV     1   --> A              
     e(  3 -  3) =    -15.54671  eV     1   --> A              
     e(  4 -  4) =    -15.50067  eV     1   --> A              
     e(  5 -  5) =    -15.29576  eV     1   --> A              
     e(  6 -  6) =    -15.27705  eV     1   --> A              
     e(  7 -  7) =    -15.16229  eV     1   --> A              
     e(  8 -  8) =    -15.16184  eV     1   --> A              
     e(  9 -  9) =    -14.56429  eV     1   --> A              
     e( 10 - 10) =    -14.54457  eV     1   --> A              
     e( 11 - 11) =    -14.41907  eV     1   --> A              
     e( 12 - 12) =    -14.41297  eV     1   --> A              
     e( 13 - 13) =    -14.37101  eV     1   --> A              
     e( 14 - 14) =    -14.36921  eV     1   --> A              
     e( 15 - 15) =    -14.05125  eV     1   --> A              
     e( 16 - 16) =    -14.04707  eV     1   --> A              
     e( 17 - 17) =    -13.92490  eV     1   --> A              
     e( 18 - 18) =    -13.92146  eV     1   --> A              
     e( 19 - 19) =     -6.10812  eV     1   --> A              
     e( 20 - 20) =     -6.03763  eV     1   --> A              
     e( 21 - 21) =     -3.83862  eV     1   --> A              
     e( 22 - 22) =     -3.83180  eV     1   --> A              
     e( 23 - 23) =     -3.40537  eV     1   --> A              
     e( 24 - 24) =     -3.39194  eV     1   --> A              
     e( 25 - 25) =     -3.25890  eV     1   --> A              
     e( 26 - 26) =     -3.23986  eV     1   --> A              
     e( 27 - 27) =     -3.04080  eV     1   --> A              
     e( 28 - 28) =     -3.02100  eV     1   --> A              
     e( 29 - 29) =     -2.61297  eV     1   --> A              
     e( 30 - 30) =     -2.59086  eV     1   --> A              
     e( 31 - 31) =     -2.24029  eV     1   --> A              
     e( 32 - 32) =     -2.23033  eV     1   --> A              
     e( 33 - 33) =     -2.03262  eV     1   --> A              
     e( 34 - 34) =     -1.99774  eV     1   --> A              
     e( 35 - 35) =     -1.53675  eV     1   --> A              
     e( 36 - 36) =     -1.53564  eV     1   --> A              
     e( 37 - 37) =     -1.26195  eV     1   --> A              
     e( 38 - 38) =     -1.25264  eV     1   --> A              
     e( 39 - 39) =     -0.72479  eV     1   --> A              
     e( 40 - 40) =     -0.72379  eV     1   --> A              
     e( 41 - 41) =     -0.21298  eV     1   --> A              
     e( 42 - 42) =     -0.20343  eV     1   --> A              
     e( 43 - 43) =     -0.08342  eV     1   --> A              
     e( 44 - 44) =     -0.04814  eV     1   --> A              
     e( 45 - 45) =      0.14393  eV     1   --> A              
     e( 46 - 46) =      0.15741  eV     1   --> A              
     e( 47 - 47) =      0.41714  eV     1   --> A              
     e( 48 - 48) =      0.41883  eV     1   --> A              
     e( 49 - 49) =      0.53070  eV     1   --> A              
     e( 50 - 50) =      0.54416  eV     1   --> A              
     e( 51 - 51) =      0.73484  eV     1   --> A              
     e( 52 - 52) =      0.76450  eV     1   --> A              
     e( 53 - 53) =      1.00001  eV     1   --> A              
     e( 54 - 54) =      1.01330  eV     1   --> A              
     e( 55 - 55) =      1.22106  eV     1   --> A              
     e( 56 - 56) =      1.23016  eV     1   --> A              
     e( 57 - 57) =      1.45983  eV     1   --> A              
     e( 58 - 58) =      1.47230  eV     1   --> A              
     e( 59 - 59) =      1.65646  eV     1   --> A              
     e( 60 - 60) =      1.69665  eV     1   --> A              
     e( 61 - 61) =      1.90527  eV     1   --> A              
     e( 62 - 62) =      1.93040  eV     1   --> A              
     e( 63 - 63) =      1.99780  eV     1   --> A              
     e( 64 - 64) =      2.01861  eV     1   --> A              
     e( 65 - 65) =      2.25525  eV     1   --> A              
     e( 66 - 66) =      2.25728  eV     1   --> A              
     e( 67 - 67) =      2.56310  eV     1   --> A              
     e( 68 - 68) =      2.57830  eV     1   --> A              
     e( 69 - 69) =      2.77896  eV     1   --> A              
     e( 70 - 70) =      2.78491  eV     1   --> A              
     e( 71 - 71) =      2.88033  eV     1   --> A              
     e( 72 - 72) =      2.88640  eV     1   --> A              
     e( 73 - 73) =      8.67284  eV     1   --> A              
     e( 74 - 74) =      8.79066  eV     1   --> A              
     e( 75 - 75) =     11.08350  eV     1   --> A              
     e( 76 - 76) =     11.09736  eV     1   --> A              
     e( 77 - 77) =     11.37320  eV     1   --> A              
     e( 78 - 78) =     11.37627  eV     1   --> A              
     e( 79 - 79) =     11.54686  eV     1   --> A              
     e( 80 - 80) =     11.55380  eV     1   --> A              
     e( 81 - 81) =     11.95589  eV     1   --> A              
     e( 82 - 82) =     11.96958  eV     1   --> A              
     e( 83 - 83) =     12.08854  eV     1   --> A              
     e( 84 - 84) =     12.16876  eV     1   --> A              
     e( 85 - 85) =     12.47167  eV     1   --> A              
     e( 86 - 86) =     12.50045  eV     1   --> A              
     e( 87 - 87) =     12.73043  eV     1   --> A              
     e( 88 - 88) =     12.73448  eV     1   --> A              
     e( 89 - 89) =     13.28628  eV     1   --> A              
     e( 90 - 90) =     13.29793  eV     1   --> A              
     e( 91 - 91) =     13.42878  eV     1   --> A              
     e( 92 - 92) =     13.44309  eV     1   --> A              
     e( 93 - 93) =     13.73094  eV     1   --> A              
     e( 94 - 94) =     13.76056  eV     1   --> A              
     e( 95 - 95) =     14.18053  eV     1   --> A              
     e( 96 - 96) =     14.19452  eV     1   --> A              
     e( 97 - 97) =     14.58363  eV     1   --> A              
     e( 98 - 98) =     14.59482  eV     1   --> A              
     e( 99 - 99) =     15.14054  eV     1   --> A              
     e(100 -100) =     15.15945  eV     1   --> A              
     e(101 -101) =     15.37691  eV     1   --> A              
     e(102 -102) =     15.40325  eV     1   --> A              
     e(103 -103) =     15.67376  eV     1   --> A              
     e(104 -104) =     15.68591  eV     1   --> A              
     e(105 -105) =     15.99416  eV     1   --> A              
     e(106 -106) =     16.02100  eV     1   --> A              
     e(107 -107) =     16.27499  eV     1   --> A              
     e(108 -108) =     16.27948  eV     1   --> A              
     e(109 -109) =     16.44580  eV     1   --> A              
     e(110 -110) =     16.46019  eV     1   --> A              
     e(111 -111) =     16.65296  eV     1   --> A              
     e(112 -112) =     16.67282  eV     1   --> A              
     e(113 -113) =     16.75788  eV     1   --> A              
     e(114 -114) =     16.77640  eV     1   --> A              
     e(115 -115) =     16.98038  eV     1   --> A              
     e(116 -116) =     16.99316  eV     1   --> A              
     e(117 -117) =     17.32129  eV     1   --> A              
     e(118 -118) =     17.34399  eV     1   --> A              
     e(119 -119) =     17.48204  eV     1   --> A              
     e(120 -120) =     17.52719  eV     1   --> A              
     e(121 -121) =     17.74268  eV     1   --> A              
     e(122 -122) =     17.77957  eV     1   --> A              
     e(123 -123) =     17.86515  eV     1   --> A              
     e(124 -124) =     17.87584  eV     1   --> A              
     e(125 -125) =     18.53157  eV     1   --> A              
     e(126 -126) =     18.57095  eV     1   --> A              
     e(127 -127) =     18.98381  eV     1   --> A              
     e(128 -128) =     18.98490  eV     1   --> A              
     e(129 -129) =     19.47096  eV     1   --> A              
     e(130 -130) =     19.49333  eV     1   --> A              
     e(131 -131) =     19.62313  eV     1   --> A              
     e(132 -132) =     19.66512  eV     1   --> A              
     e(133 -133) =     19.96921  eV     1   --> A              
     e(134 -134) =     19.99162  eV     1   --> A              
     e(135 -135) =     20.22666  eV     1   --> A              
     e(136 -136) =     20.23688  eV     1   --> A              
     e(137 -137) =     20.93763  eV     1   --> A              
     e(138 -138) =     20.95763  eV     1   --> A              
     e(139 -139) =     21.47755  eV     1   --> A              
     e(140 -140) =     21.58185  eV     1   --> A              
     e(141 -141) =     21.65057  eV     1   --> A              
     e(142 -142) =     21.65242  eV     1   --> A              
     e(143 -143) =     21.96675  eV     1   --> A              
     e(144 -144) =     21.97963  eV     1   --> A              

 **************************************************************************

 **************************************************************************

                    xk=(   0.00000,  -0.25000,   0.00000  )

     Band symmetry, C_1 (1)     point group:

     e(  1 -  1) =    -16.86728  eV     1   --> A              
     e(  2 -  2) =    -16.77666  eV     1   --> A              
     e(  3 -  3) =    -15.59922  eV     1   --> A              
     e(  4 -  4) =    -15.45322  eV     1   --> A              
     e(  5 -  5) =    -15.31051  eV     1   --> A              
     e(  6 -  6) =    -15.25947  eV     1   --> A              
     e(  7 -  7) =    -15.16325  eV     1   --> A              
     e(  8 -  8) =    -15.15877  eV     1   --> A              
     e(  9 -  9) =    -14.58400  eV     1   --> A              
     e( 10 - 10) =    -14.52927  eV     1   --> A              
     e( 11 - 11) =    -14.43119  eV     1   --> A              
     e( 12 - 12) =    -14.40441  eV     1   --> A              
     e( 13 - 13) =    -14.36925  eV     1   --> A              
     e( 14 - 14) =    -14.36492  eV     1   --> A              
     e( 15 - 15) =    -14.06241  eV     1   --> A              
     e( 16 - 16) =    -14.03777  eV     1   --> A              
     e( 17 - 17) =    -13.92729  eV     1   --> A              
     e( 18 - 18) =    -13.91918  eV     1   --> A              
     e( 19 - 19) =     -6.18074  eV     1   --> A              
     e( 20 - 20) =     -5.95835  eV     1   --> A              
     e( 21 - 21) =     -3.83775  eV     1   --> A              
     e( 22 - 22) =     -3.83619  eV     1   --> A              
     e( 23 - 23) =     -3.41840  eV     1   --> A              
     e( 24 - 24) =     -3.38098  eV     1   --> A              
     e( 25 - 25) =     -3.26512  eV     1   --> A              
     e( 26 - 26) =     -3.23115  eV     1   --> A              
     e( 27 - 27) =     -3.07803  eV     1   --> A              
     e( 28 - 28) =     -2.98786  eV     1   --> A              
     e( 29 - 29) =     -2.63612  eV     1   --> A              
     e( 30 - 30) =     -2.56171  eV     1   --> A              
     e( 31 - 31) =     -2.28492  eV     1   --> A              
     e( 32 - 32) =     -2.18370  eV     1   --> A              
     e( 33 - 33) =     -2.06201  eV     1   --> A              
     e( 34 - 34) =     -1.98065  eV     1   --> A              
     e( 35 - 35) =     -1.54233  eV     1   --> A              
     e( 36 - 36) =     -1.52780  eV     1   --> A              
     e( 37 - 37) =     -1.27410  eV     1   --> A              
     e( 38 - 38) =     -1.22784  eV     1   --> A              
     e( 39 - 39) =     -0.73871  eV     1   --> A              
     e( 40 - 40) =     -0.70804  eV     1   --> A              
     e( 41 - 41) =     -0.22907  eV     1   --> A              
     e( 42 - 42) =     -0.21911  eV     1   --> A              
     e( 43 - 43) =     -0.11169  eV     1   --> A              
     e( 44 - 44) =     -0.00822  eV     1   --> A              
     e( 45 - 45) =      0.13786  eV     1   --> A              
     e( 46 - 46) =      0.16858  eV     1   --> A              
     e( 47 - 47) =      0.41024  eV     1   --> A              
     e( 48 - 48) =      0.41858  eV     1   --> A              
     e( 49 - 49) =      0.51659  eV     1   --> A              
     e( 50 - 50) =      0.55729  eV     1   --> A              
     e( 51 - 51) =      0.73605  eV     1   --> A              
     e( 52 - 52) =      0.76698  eV     1   --> A              
     e( 53 - 53) =      0.98662  eV     1   --> A              
     e( 54 - 54) =      1.01853  eV     1   --> A              
     e( 55 - 55) =      1.22772  eV     1   --> A              
     e( 56 - 56) =      1.24164  eV     1   --> A              
     e( 57 - 57) =      1.45777  eV     1   --> A              
     e( 58 - 58) =      1.47404  eV     1   --> A              
     e( 59 - 59) =      1.62098  eV     1   --> A              
     e( 60 - 60) =      1.73332  eV     1   --> A              
     e( 61 - 61) =      1.86926  eV     1   --> A              
     e( 62 - 62) =      1.94569  eV     1   --> A              
     e( 63 - 63) =      1.97273  eV     1   --> A              
     e( 64 - 64) =      2.06388  eV     1   --> A              
     e( 65 - 65) =      2.25210  eV     1   --> A              
     e( 66 - 66) =      2.26306  eV     1   --> A              
     e( 67 - 67) =      2.54623  eV     1   --> A              
     e( 68 - 68) =      2.59049  eV     1   --> A              
     e( 69 - 69) =      2.76810  eV     1   --> A              
     e( 70 - 70) =      2.78944  eV     1   --> A              
     e( 71 - 71) =      2.87970  eV     1   --> A              
     e( 72 - 72) =      2.89767  eV     1   --> A              
     e( 73 - 73) =      8.54798  eV     1   --> A              
     e( 74 - 74) =      8.92480  eV     1   --> A              
     e( 75 - 75) =     11.04958  eV     1   --> A              
     e( 76 - 76) =     11.11330  eV     1   --> A              
     e( 77 - 77) =     11.36034  eV     1   --> A              
     e( 78 - 78) =     11.37666  eV     1   --> A              
     e( 79 - 79) =     11.54143  eV     1   --> A              
     e( 80 - 80) =     11.55775  eV     1   --> A              
     e( 81 - 81) =     11.94686  eV     1   --> A              
     e( 82 - 82) =     11.97942  eV     1   --> A              
     e( 83 - 83) =     12.04790  eV     1   --> A              
     e( 84 - 84) =     12.21148  eV     1   --> A              
     e( 85 - 85) =     12.47957  eV     1   --> A              
     e( 86 - 86) =     12.50299  eV     1   --> A              
     e( 87 - 87) =     12.70644  eV     1   --> A              
     e( 88 - 88) =     12.75403  eV     1   --> A              
     e( 89 - 89) =     13.25493  eV     1   --> A              
     e( 90 - 90) =     13.26454  eV     1   --> A              
     e( 91 - 91) =     13.45553  eV     1   --> A              
     e( 92 - 92) =     13.48876  eV     1   --> A              
     e( 93 - 93) =     13.71329  eV     1   --> A              
     e( 94 - 94) =     13.78696  eV     1   --> A              
     e( 95 - 95) =     14.19539  eV     1   --> A              
     e( 96 - 96) =     14.19834  eV     1   --> A              
     e( 97 - 97) =     14.55070  eV     1   --> A              
     e( 98 - 98) =     14.63523  eV     1   --> A              
     e( 99 - 99) =     15.10798  eV     1   --> A              
     e(100 -100) =     15.17334  eV     1   --> A              
     e(101 -101) =     15.36776  eV     1   --> A              
     e(102 -102) =     15.41903  eV     1   --> A              
     e(103 -103) =     15.64253  eV     1   --> A              
     e(104 -104) =     15.72284  eV     1   --> A              
     e(105 -105) =     15.99015  eV     1   --> A              
     e(106 -106) =     16.00833  eV     1   --> A              
     e(107 -107) =     16.26817  eV     1   --> A              
     e(108 -108) =     16.27555  eV     1   --> A              
     e(109 -109) =     16.43809  eV     1   --> A              
     e(110 -110) =     16.45500  eV     1   --> A              
     e(111 -111) =     16.59090  eV     1   --> A              
     e(112 -112) =     16.70101  eV     1   --> A              
     e(113 -113) =     16.77556  eV     1   --> A              
     e(114 -114) =     16.79346  eV     1   --> A              
     e(115 -115) =     16.97271  eV     1   --> A              
     e(116 -116) =     16.99230  eV     1   --> A              
     e(117 -117) =     17.29093  eV     1   --> A              
     e(118 -118) =     17.35277  eV     1   --> A              
     e(119 -119) =     17.43824  eV     1   --> A              
     e(120 -120) =     17.56056  eV     1   --> A              
     e(121 -121) =     17.76394  eV     1   --> A              
     e(122 -122) =     17.78893  eV     1   --> A              
     e(123 -123) =     17.85748  eV     1   --> A              
     e(124 -124) =     17.88346  eV     1   --> A              
     e(125 -125) =     18.48808  eV     1   --> A              
     e(126 -126) =     18.62344  eV     1   --> A              
     e(127 -127) =     18.98161  eV     1   --> A              
     e(128 -128) =     18.99918  eV     1   --> A              
     e(129 -129) =     19.45686  eV     1   --> A              
     e(130 -130) =     19.49824  eV     1   --> A              
     e(131 -131) =     19.59494  eV     1   --> A              
     e(132 -132) =     19.70863  eV     1   --> A              
     e(133 -133) =     19.92847  eV     1   --> A              
     e(134 -134) =     20.03853  eV     1   --> A              
     e(135 -135) =     20.22749  eV     1   --> A              
     e(136 -136) =     20.26583  eV     1   --> A              
     e(137 -137) =     20.88612  eV     1   --> A              
     e(138 -138) =     21.00075  eV     1   --> A              
     e(139 -139) =     21.41855  eV     1   --> A              
     e(140 -140) =     21.59731  eV     1   --> A              
     e(141 -141) =     21.63166  eV     1   --> A              
     e(142 -142) =     21.68718  eV     1   --> A              
     e(143 -143) =     21.97897  eV     1   --> A              
     e(144 -144) =     21.98006  eV     1   --> A              

 **************************************************************************

 **************************************************************************

                    xk=(   0.00000,  -0.20000,   0.00000  )

     Band symmetry, C_1 (1)     point group:

     e(  1 -  1) =    -16.91586  eV     1   --> A              
     e(  2 -  2) =    -16.70883  eV     1   --> A              
     e(  3 -  3) =    -15.70137  eV     1   --> A              
     e(  4 -  4) =    -15.38904  eV     1   --> A              
     e(  5 -  5) =    -15.31913  eV     1   --> A              
     e(  6 -  6) =    -15.22570  eV     1   --> A              
     e(  7 -  7) =    -15.16290  eV     1   --> A              
     e(  8 -  8) =    -15.14705  eV     1   --> A              
     e(  9 -  9) =    -14.62978  eV     1   --> A              
     e( 10 - 10) =    -14.50431  eV     1   --> A              
     e( 11 - 11) =    -14.44939  eV     1   --> A              
     e( 12 - 12) =    -14.40223  eV     1   --> A              
     e( 13 - 13) =    -14.36365  eV     1   --> A              
     e( 14 - 14) =    -14.34282  eV     1   --> A              
     e( 15 - 15) =    -14.08129  eV     1   --> A              
     e( 16 - 16) =    -14.02752  eV     1   --> A              
     e( 17 - 17) =    -13.93284  eV     1   --> A              
     e( 18 - 18) =    -13.91390  eV     1   --> A              
     e( 19 - 19) =     -6.30613  eV     1   --> A              
     e( 20 - 20) =     -5.80202  eV     1   --> A              
     e( 21 - 21) =     -3.84717  eV     1   --> A              
     e( 22 - 22) =     -3.84532  eV     1   --> A              
     e( 23 - 23) =     -3.44916  eV     1   --> A              
     e( 24 - 24) =     -3.36102  eV     1   --> A              
     e( 25 - 25) =     -3.28688  eV     1   --> A              
     e( 26 - 26) =     -3.20208  eV     1   --> A              
     e( 27 - 27) =     -3.13278  eV     1   --> A              
     e( 28 - 28) =     -2.94557  eV     1   --> A              
     e( 29 - 29) =     -2.66735  eV     1   --> A              
     e( 30 - 30) =     -2.50391  eV     1   --> A              
     e( 31 - 31) =     -2.33805  eV     1   --> A              
     e( 32 - 32) =     -2.13774  eV     1   --> A              
     e( 33 - 33) =     -2.12686  eV     1   --> A              
     e( 34 - 34) =     -1.94942  eV     1   --> A              
     e( 35 - 35) =     -1.55799  eV     1   --> A              
     e( 36 - 36) =     -1.50992  eV     1   --> A              
     e( 37 - 37) =     -1.26218  eV     1   --> A              
     e( 38 - 38) =     -1.17648  eV     1   --> A              
     e( 39 - 39) =     -0.74615  eV     1   --> A              
     e( 40 - 40) =     -0.69501  eV     1   --> A              
     e( 41 - 41) =     -0.30488  eV     1   --> A              
     e( 42 - 42) =     -0.28369  eV     1   --> A              
     e( 43 - 43) =     -0.11207  eV     1   --> A              
     e( 44 - 44) =      0.04035  eV     1   --> A              
     e( 45 - 45) =      0.11659  eV     1   --> A              
     e( 46 - 46) =      0.22749  eV     1   --> A              
     e( 47 - 47) =      0.38955  eV     1   --> A              
     e( 48 - 48) =      0.39898  eV     1   --> A              
     e( 49 - 49) =      0.50241  eV     1   --> A              
     e( 50 - 50) =      0.56675  eV     1   --> A              
     e( 51 - 51) =      0.72599  eV     1   --> A              
     e( 52 - 52) =      0.79138  eV     1   --> A              
     e( 53 - 53) =      0.96157  eV     1   --> A              
     e( 54 - 54) =      1.00578  eV     1   --> A              
     e( 55 - 55) =      1.27146  eV     1   --> A              
     e( 56 - 56) =      1.27486  eV     1   --> A              
     e( 57 - 57) =      1.44834  eV     1   --> A              
     e( 58 - 58) =      1.47371  eV     1   --> A              
     e( 59 - 59) =      1.56641  eV     1   --> A              
     e( 60 - 60) =      1.79308  eV     1   --> A              
     e( 61 - 61) =      1.80134  eV     1   --> A              
     e( 62 - 62) =      1.94708  eV     1   --> A              
     e( 63 - 63) =      1.96899  eV     1   --> A              
     e( 64 - 64) =      2.14296  eV     1   --> A              
     e( 65 - 65) =      2.25032  eV     1   --> A              
     e( 66 - 66) =      2.27700  eV     1   --> A              
     e( 67 - 67) =      2.51267  eV     1   --> A              
     e( 68 - 68) =      2.59935  eV     1   --> A              
     e( 69 - 69) =      2.74082  eV     1   --> A              
     e( 70 - 70) =      2.80228  eV     1   --> A              
     e( 71 - 71) =      2.88820  eV     1   --> A              
     e( 72 - 72) =      2.92712  eV     1   --> A              
     e( 73 - 73) =      8.33029  eV     1   --> A              
     e( 74 - 74) =      9.18890  eV     1   --> A              
     e( 75 - 75) =     10.98057  eV     1   --> A              
     e( 76 - 76) =     11.08897  eV     1   --> A              
     e( 77 - 77) =     11.32347  eV     1   --> A              
     e( 78 - 78) =     11.35552  eV     1   --> A              
     e( 79 - 79) =     11.54036  eV     1   --> A              
     e( 80 - 80) =     11.56653  eV     1   --> A              
     e( 81 - 81) =     11.90034  eV     1   --> A              
     e( 82 - 82) =     11.97221  eV     1   --> A              
     e( 83 - 83) =     12.01602  eV     1   --> A              
     e( 84 - 84) =     12.30691  eV     1   --> A              
     e( 85 - 85) =     12.49693  eV     1   --> A              
     e( 86 - 86) =     12.52471  eV     1   --> A              
     e( 87 - 87) =     12.69335  eV     1   --> A              
     e( 88 - 88) =     12.75904  eV     1   --> A              
     e( 89 - 89) =     13.15503  eV     1   --> A              
     e( 90 - 90) =     13.20552  eV     1   --> A              
     e( 91 - 91) =     13.48791  eV     1   --> A              
     e( 92 - 92) =     13.63477  eV     1   --> A              
     e( 93 - 93) =     13.70551  eV     1   --> A              
     e( 94 - 94) =     13.85491  eV     1   --> A              
     e( 95 - 95) =     14.22192  eV     1   --> A              
     e( 96 - 96) =     14.23251  eV     1   --> A              
     e( 97 - 97) =     14.53270  eV     1   --> A              
     e( 98 - 98) =     14.70278  eV     1   --> A              
     e( 99 - 99) =     15.03349  eV     1   --> A              
     e(100 -100) =     15.18998  eV     1   --> A              
     e(101 -101) =     15.32985  eV     1   --> A              
     e(102 -102) =     15.45636  eV     1   --> A              
     e(103 -103) =     15.61015  eV     1   --> A              
     e(104 -104) =     15.76383  eV     1   --> A              
     e(105 -105) =     15.94373  eV     1   --> A              
     e(106 -106) =     15.99339  eV     1   --> A              
     e(107 -107) =     16.23148  eV     1   --> A              
     e(108 -108) =     16.25734  eV     1   --> A              
     e(109 -109) =     16.41096  eV     1   --> A              
     e(110 -110) =     16.42597  eV     1   --> A              
     e(111 -111) =     16.53070  eV     1   --> A              
     e(112 -112) =     16.66234  eV     1   --> A              
     e(113 -113) =     16.80238  eV     1   --> A              
     e(114 -114) =     16.85333  eV     1   --> A              
     e(115 -115) =     16.96631  eV     1   --> A              
     e(116 -116) =     16.98398  eV     1   --> A              
     e(117 -117) =     17.22139  eV     1   --> A              
     e(118 -118) =     17.35160  eV     1   --> A              
     e(119 -119) =     17.36203  eV     1   --> A              
     e(120 -120) =     17.62150  eV     1   --> A              
     e(121 -121) =     17.77192  eV     1   --> A              
     e(122 -122) =     17.79749  eV     1   --> A              
     e(123 -123) =     17.87523  eV     1   --> A              
     e(124 -124) =     17.92474  eV     1   --> A              
     e(125 -125) =     18.45283  eV     1   --> A              
     e(126 -126) =     18.72336  eV     1   --> A              
     e(127 -127) =     18.99394  eV     1   --> A              
     e(128 -128) =     19.03390  eV     1   --> A              
     e(129 -129) =     19.38923  eV     1   --> A              
     e(130 -130) =     19.49697  eV     1   --> A              
     e(131 -131) =     19.56526  eV     1   --> A              
     e(132 -132) =     19.81124  eV     1   --> A              
     e(133 -133) =     19.90050  eV     1   --> A              
     e(134 -134) =     20.12812  eV     1   --> A              
     e(135 -135) =     20.28608  eV     1   --> A              
     e(136 -136) =     20.31193  eV     1   --> A              
     e(137 -137) =     20.81767  eV     1   --> A              
     e(138 -138) =     21.01909  eV     1   --> A              
     e(139 -139) =     21.23367  eV     1   --> A              
     e(140 -140) =     21.54262  eV     1   --> A              
     e(141 -141) =     21.69118  eV     1   --> A              
     e(142 -142) =     21.70083  eV     1   --> A              
     e(143 -143) =     22.02546  eV     1   --> A              
     e(144 -144) =     22.04735  eV     1   --> A              

 **************************************************************************

 **************************************************************************

                    xk=(   0.00000,  -0.15000,   0.00000  )

     Band symmetry, C_1 (1)     point group:

     e(  1 -  1) =    -16.95451  eV     1   --> A              
     e(  2 -  2) =    -16.63811  eV     1   --> A              
     e(  3 -  3) =    -15.80099  eV     1   --> A              
     e(  4 -  4) =    -15.39149  eV     1   --> A              
     e(  5 -  5) =    -15.26801  eV     1   --> A              
     e(  6 -  6) =    -15.20528  eV     1   --> A              
     e(  7 -  7) =    -15.16193  eV     1   --> A              
     e(  8 -  8) =    -15.11925  eV     1   --> A              
     e(  9 -  9) =    -14.67891  eV     1   --> A              
     e( 10 - 10) =    -14.49232  eV     1   --> A              
     e( 11 - 11) =    -14.46100  eV     1   --> A              
     e( 12 - 12) =    -14.40518  eV     1   --> A              
     e( 13 - 13) =    -14.35626  eV     1   --> A              
     e( 14 - 14) =    -14.31305  eV     1   --> A              
     e( 15 - 15) =    -14.10353  eV     1   --> A              
     e( 16 - 16) =    -14.02004  eV     1   --> A              
     e( 17 - 17) =    -13.93763  eV     1   --> A              
     e( 18 - 18) =    -13.90949  eV     1   --> A              
     e( 19 - 19) =     -6.40870  eV     1   --> A              
     e( 20 - 20) =     -5.64994  eV     1   --> A              
     e( 21 - 21) =     -3.87178  eV     1   --> A              
     e( 22 - 22) =     -3.85686  eV     1   --> A              
     e( 23 - 23) =     -3.47984  eV     1   --> A              
     e( 24 - 24) =     -3.34531  eV     1   --> A              
     e( 25 - 25) =     -3.30332  eV     1   --> A              
     e( 26 - 26) =     -3.17733  eV     1   --> A              
     e( 27 - 27) =     -3.17313  eV     1   --> A              
     e( 28 - 28) =     -2.91620  eV     1   --> A              
     e( 29 - 29) =     -2.68399  eV     1   --> A              
     e( 30 - 30) =     -2.44628  eV     1   --> A              
     e( 31 - 31) =     -2.39220  eV     1   --> A              
     e( 32 - 32) =     -2.20856  eV     1   --> A              
     e( 33 - 33) =     -2.07356  eV     1   --> A              
     e( 34 - 34) =     -1.93205  eV     1   --> A              
     e( 35 - 35) =     -1.58888  eV     1   --> A              
     e( 36 - 36) =     -1.48463  eV     1   --> A              
     e( 37 - 37) =     -1.22294  eV     1   --> A              
     e( 38 - 38) =     -1.11581  eV     1   --> A              
     e( 39 - 39) =     -0.74360  eV     1   --> A              
     e( 40 - 40) =     -0.69452  eV     1   --> A              
     e( 41 - 41) =     -0.40270  eV     1   --> A              
     e( 42 - 42) =     -0.34308  eV     1   --> A              
     e( 43 - 43) =     -0.10172  eV     1   --> A              
     e( 44 - 44) =      0.05105  eV     1   --> A              
     e( 45 - 45) =      0.09307  eV     1   --> A              
     e( 46 - 46) =      0.31274  eV     1   --> A              
     e( 47 - 47) =      0.35775  eV     1   --> A              
     e( 48 - 48) =      0.36783  eV     1   --> A              
     e( 49 - 49) =      0.50202  eV     1   --> A              
     e( 50 - 50) =      0.55980  eV     1   --> A              
     e( 51 - 51) =      0.73067  eV     1   --> A              
     e( 52 - 52) =      0.80110  eV     1   --> A              
     e( 53 - 53) =      0.94799  eV     1   --> A              
     e( 54 - 54) =      0.97586  eV     1   --> A              
     e( 55 - 55) =      1.30037  eV     1   --> A              
     e( 56 - 56) =      1.34308  eV     1   --> A              
     e( 57 - 57) =      1.44816  eV     1   --> A              
     e( 58 - 58) =      1.45116  eV     1   --> A              
     e( 59 - 59) =      1.54818  eV     1   --> A              
     e( 60 - 60) =      1.73247  eV     1   --> A              
     e( 61 - 61) =      1.84617  eV     1   --> A              
     e( 62 - 62) =      1.91979  eV     1   --> A              
     e( 63 - 63) =      1.99746  eV     1   --> A              
     e( 64 - 64) =      2.20979  eV     1   --> A              
     e( 65 - 65) =      2.25016  eV     1   --> A              
     e( 66 - 66) =      2.29969  eV     1   --> A              
     e( 67 - 67) =      2.48254  eV     1   --> A              
     e( 68 - 68) =      2.58422  eV     1   --> A              
     e( 69 - 69) =      2.71050  eV     1   --> A              
     e( 70 - 70) =      2.83122  eV     1   --> A              
     e( 71 - 71) =      2.90084  eV     1   --> A              
     e( 72 - 72) =      2.95780  eV     1   --> A              
     e( 73 - 73) =      8.14677  eV     1   --> A              
     e( 74 - 74) =      9.45669  eV     1   --> A              
     e( 75 - 75) =     10.90745  eV     1   --> A              
     e( 76 - 76) =     10.99526  eV     1   --> A              
     e( 77 - 77) =     11.28262  eV     1   --> A              
     e( 78 - 78) =     11.31951  eV     1   --> A              
     e( 79 - 79) =     11.54438  eV     1   --> A              
     e( 80 - 80) =     11.57724  eV     1   --> A              
     e( 81 - 81) =     11.82919  eV     1   --> A              
     e( 82 - 82) =     11.95524  eV     1   --> A              
     e( 83 - 83) =     12.06146  eV     1   --> A              
     e( 84 - 84) =     12.35635  eV     1   --> A              
     e( 85 - 85) =     12.51242  eV     1   --> A              
     e( 86 - 86) =     12.55143  eV     1   --> A              
     e( 87 - 87) =     12.71059  eV     1   --> A              
     e( 88 - 88) =     12.75018  eV     1   --> A              
     e( 89 - 89) =     13.04642  eV     1   --> A              
     e( 90 - 90) =     13.19427  eV     1   --> A              
     e( 91 - 91) =     13.48383  eV     1   --> A              
     e( 92 - 92) =     13.73081  eV     1   --> A              
     e( 93 - 93) =     13.77357  eV     1   --> A              
     e( 94 - 94) =     13.93759  eV     1   --> A              
     e( 95 - 95) =     14.27668  eV     1   --> A              
     e( 96 - 96) =     14.27737  eV     1   --> A              
     e( 97 - 97) =     14.54367  eV     1   --> A              
     e( 98 - 98) =     14.77766  eV     1   --> A              
     e( 99 - 99) =     14.94016  eV     1   --> A              
     e(100 -100) =     15.19037  eV     1   --> A              
     e(101 -101) =     15.28253  eV     1   --> A              
     e(102 -102) =     15.48836  eV     1   --> A              
     e(103 -103) =     15.60232  eV     1   --> A              
     e(104 -104) =     15.78928  eV     1   --> A              
     e(105 -105) =     15.89575  eV     1   --> A              
     e(106 -106) =     15.95132  eV     1   --> A              
     e(107 -107) =     16.16510  eV     1   --> A              
     e(108 -108) =     16.20926  eV     1   --> A              
     e(109 -109) =     16.36744  eV     1   --> A              
     e(110 -110) =     16.37096  eV     1   --> A              
     e(111 -111) =     16.53558  eV     1   --> A              
     e(112 -112) =     16.62140  eV     1   --> A              
     e(113 -113) =     16.78811  eV     1   --> A              
     e(114 -114) =     16.91732  eV     1   --> A              
     e(115 -115) =     16.93870  eV     1   --> A              
     e(116 -116) =     16.99430  eV     1   --> A              
     e(117 -117) =     17.13329  eV     1   --> A              
     e(118 -118) =     17.32154  eV     1   --> A              
     e(119 -119) =     17.35358  eV     1   --> A              
     e(120 -120) =     17.67276  eV     1   --> A              
     e(121 -121) =     17.74679  eV     1   --> A              
     e(122 -122) =     17.80287  eV     1   --> A              
     e(123 -123) =     17.86582  eV     1   --> A              
     e(124 -124) =     18.01362  eV     1   --> A              
     e(125 -125) =     18.46356  eV     1   --> A              
     e(126 -126) =     18.82304  eV     1   --> A              
     e(127 -127) =     19.00953  eV     1   --> A              
     e(128 -128) =     19.07889  eV     1   --> A              
     e(129 -129) =     19.30810  eV     1   --> A              
     e(130 -130) =     19.47278  eV     1   --> A              
     e(131 -131) =     19.57280  eV     1   --> A              
     e(132 -132) =     19.90444  eV     1   --> A              
     e(133 -133) =     19.92156  eV     1   --> A              
     e(134 -134) =     20.23121  eV     1   --> A              
     e(135 -135) =     20.31946  eV     1   --> A              
     e(136 -136) =     20.40494  eV     1   --> A              
     e(137 -137) =     20.75170  eV     1   --> A              
     e(138 -138) =     20.98440  eV     1   --> A              
     e(139 -139) =     21.11912  eV     1   --> A              
     e(140 -140) =     21.48227  eV     1   --> A              
     e(141 -141) =     21.69458  eV     1   --> A              
     e(142 -142) =     21.73336  eV     1   --> A              
     e(143 -143) =     22.03513  eV     1   --> A              
     e(144 -144) =     22.05523  eV     1   --> A              

 **************************************************************************

 **************************************************************************

                    xk=(   0.00000,  -0.10000,   0.00000  )

     Band symmetry, C_1 (1)     point group:

     e(  1 -  1) =    -16.98254  eV     1   --> A              
     e(  2 -  2) =    -16.57057  eV     1   --> A              
     e(  3 -  3) =    -15.89028  eV     1   --> A              
     e(  4 -  4) =    -15.40730  eV     1   --> A              
     e(  5 -  5) =    -15.21388  eV     1   --> A              
     e(  6 -  6) =    -15.19738  eV     1   --> A              
     e(  7 -  7) =    -15.16071  eV     1   --> A              
     e(  8 -  8) =    -15.08014  eV     1   --> A              
     e(  9 -  9) =    -14.72697  eV     1   --> A              
     e( 10 - 10) =    -14.49367  eV     1   --> A              
     e( 11 - 11) =    -14.46301  eV     1   --> A              
     e( 12 - 12) =    -14.40854  eV     1   --> A              
     e( 13 - 13) =    -14.34904  eV     1   --> A              
     e( 14 - 14) =    -14.28171  eV     1   --> A              
     e( 15 - 15) =    -14.12814  eV     1   --> A              
     e( 16 - 16) =    -14.01494  eV     1   --> A              
     e( 17 - 17) =    -13.94128  eV     1   --> A              
     e( 18 - 18) =    -13.90621  eV     1   --> A              
     e( 19 - 19) =     -6.48464  eV     1   --> A              
     e( 20 - 20) =     -5.51715  eV     1   --> A              
     e( 21 - 21) =     -3.91380  eV     1   --> A              
[...]
     e(135 -135) =     20.38742  eV     1   --> A              
     e(136 -136) =     20.58382  eV     1   --> A              
     e(137 -137) =     20.70206  eV     1   --> A              
     e(138 -138) =     20.85639  eV     1   --> A              
     e(139 -139) =     21.19741  eV     1   --> A              
     e(140 -140) =     21.48380  eV     1   --> A              
     e(141 -141) =     21.60384  eV     1   --> A              
     e(142 -142) =     21.64655  eV     1   --> A              
     e(143 -143) =     21.87813  eV     1   --> A              
     e(144 -144) =     21.90787  eV     1   --> A              

 **************************************************************************

 **************************************************************************

                    xk=(   0.00000,  -0.50000,   0.05000  )

     Band symmetry, C_1 (1)     point group:

     e(  1 -  1) =    -16.99014  eV     1   --> A              
     e(  2 -  2) =    -16.54185  eV     1   --> A              
     e(  3 -  3) =    -15.92307  eV     1   --> A              
     e(  4 -  4) =    -15.42310  eV     1   --> A              
     e(  5 -  5) =    -15.19595  eV     1   --> A              
     e(  6 -  6) =    -15.19419  eV     1   --> A              
     e(  7 -  7) =    -15.16024  eV     1   --> A              
     e(  8 -  8) =    -15.06823  eV     1   --> A              
     e(  9 -  9) =    -14.75620  eV     1   --> A              
     e( 10 - 10) =    -14.48762  eV     1   --> A              
     e( 11 - 11) =    -14.45710  eV     1   --> A              
     e( 12 - 12) =    -14.41625  eV     1   --> A              
     e( 13 - 13) =    -14.34533  eV     1   --> A              
     e( 14 - 14) =    -14.26152  eV     1   --> A              
     e( 15 - 15) =    -14.12803  eV     1   --> A              
     e( 16 - 16) =    -14.01746  eV     1   --> A              
     e( 17 - 17) =    -13.94253  eV     1   --> A              
     e( 18 - 18) =    -13.90463  eV     1   --> A              
     e( 19 - 19) =     -6.51075  eV     1   --> A              
     e( 20 - 20) =     -5.46701  eV     1   --> A              
     e( 21 - 21) =     -3.93905  eV     1   --> A              
     e( 22 - 22) =     -3.92997  eV     1   --> A              
     e( 23 - 23) =     -3.52225  eV     1   --> A              
     e( 24 - 24) =     -3.35867  eV     1   --> A              
     e( 25 - 25) =     -3.31694  eV     1   --> A              
     e( 26 - 26) =     -3.18535  eV     1   --> A              
     e( 27 - 27) =     -3.12801  eV     1   --> A              
     e( 28 - 28) =     -2.89649  eV     1   --> A              
     e( 29 - 29) =     -2.68486  eV     1   --> A              
     e( 30 - 30) =     -2.41939  eV     1   --> A              
     e( 31 - 31) =     -2.38323  eV     1   --> A              
     e( 32 - 32) =     -2.24582  eV     1   --> A              
     e( 33 - 33) =     -2.06499  eV     1   --> A              
     e( 34 - 34) =     -1.86114  eV     1   --> A              
     e( 35 - 35) =     -1.59803  eV     1   --> A              
     e( 36 - 36) =     -1.45489  eV     1   --> A              
     e( 37 - 37) =     -1.13027  eV     1   --> A              
     e( 38 - 38) =     -1.03818  eV     1   --> A              
     e( 39 - 39) =     -0.71863  eV     1   --> A              
     e( 40 - 40) =     -0.71731  eV     1   --> A              
     e( 41 - 41) =     -0.53780  eV     1   --> A              
     e( 42 - 42) =     -0.42365  eV     1   --> A              
     e( 43 - 43) =     -0.09009  eV     1   --> A              
     e( 44 - 44) =      0.06281  eV     1   --> A              
     e( 45 - 45) =      0.11175  eV     1   --> A              
     e( 46 - 46) =      0.27467  eV     1   --> A              
     e( 47 - 47) =      0.27869  eV     1   --> A              
     e( 48 - 48) =      0.42021  eV     1   --> A              
     e( 49 - 49) =      0.52408  eV     1   --> A              
     e( 50 - 50) =      0.54186  eV     1   --> A              
     e( 51 - 51) =      0.70046  eV     1   --> A              
     e( 52 - 52) =      0.81648  eV     1   --> A              
     e( 53 - 53) =      0.91432  eV     1   --> A              
     e( 54 - 54) =      0.92032  eV     1   --> A              
     e( 55 - 55) =      1.31893  eV     1   --> A              
     e( 56 - 56) =      1.39534  eV     1   --> A              
     e( 57 - 57) =      1.43412  eV     1   --> A              
     e( 58 - 58) =      1.45875  eV     1   --> A              
     e( 59 - 59) =      1.58119  eV     1   --> A              
     e( 60 - 60) =      1.70317  eV     1   --> A              
     e( 61 - 61) =      1.86991  eV     1   --> A              
     e( 62 - 62) =      1.87267  eV     1   --> A              
     e( 63 - 63) =      2.04109  eV     1   --> A              
     e( 64 - 64) =      2.23896  eV     1   --> A              
     e( 65 - 65) =      2.26217  eV     1   --> A              
     e( 66 - 66) =      2.35050  eV     1   --> A              
     e( 67 - 67) =      2.45286  eV     1   --> A              
     e( 68 - 68) =      2.53544  eV     1   --> A              
     e( 69 - 69) =      2.67943  eV     1   --> A              
     e( 70 - 70) =      2.87740  eV     1   --> A              
     e( 71 - 71) =      2.91837  eV     1   --> A              
     e( 72 - 72) =      2.99216  eV     1   --> A              
     e( 73 - 73) =      8.00564  eV     1   --> A              
     e( 74 - 74) =      9.84540  eV     1   --> A              
     e( 75 - 75) =     10.76298  eV     1   --> A              
     e( 76 - 76) =     10.76346  eV     1   --> A              
     e( 77 - 77) =     11.22636  eV     1   --> A              
     e( 78 - 78) =     11.25333  eV     1   --> A              
     e( 79 - 79) =     11.56129  eV     1   --> A              
     e( 80 - 80) =     11.58041  eV     1   --> A              
     e( 81 - 81) =     11.77784  eV     1   --> A              
     e( 82 - 82) =     11.92547  eV     1   --> A              
     e( 83 - 83) =     12.09228  eV     1   --> A              
     e( 84 - 84) =     12.34806  eV     1   --> A              
     e( 85 - 85) =     12.48292  eV     1   --> A              
     e( 86 - 86) =     12.67671  eV     1   --> A              
     e( 87 - 87) =     12.77676  eV     1   --> A              
     e( 88 - 88) =     12.80516  eV     1   --> A              
     e( 89 - 89) =     12.92929  eV     1   --> A              
     e( 90 - 90) =     13.19389  eV     1   --> A              
     e( 91 - 91) =     13.47546  eV     1   --> A              
     e( 92 - 92) =     13.79241  eV     1   --> A              
     e( 93 - 93) =     13.88541  eV     1   --> A              
     e( 94 - 94) =     14.11503  eV     1   --> A              
     e( 95 - 95) =     14.29778  eV     1   --> A              
     e( 96 - 96) =     14.32555  eV     1   --> A              
     e( 97 - 97) =     14.62957  eV     1   --> A              
     e( 98 - 98) =     14.86116  eV     1   --> A              
     e( 99 - 99) =     14.86688  eV     1   --> A              
     e(100 -100) =     15.13300  eV     1   --> A              
     e(101 -101) =     15.19447  eV     1   --> A              
     e(102 -102) =     15.50374  eV     1   --> A              
     e(103 -103) =     15.58062  eV     1   --> A              
     e(104 -104) =     15.70828  eV     1   --> A              
     e(105 -105) =     15.84272  eV     1   --> A              
     e(106 -106) =     15.96821  eV     1   --> A              
     e(107 -107) =     16.10139  eV     1   --> A              
     e(108 -108) =     16.10239  eV     1   --> A              
     e(109 -109) =     16.24414  eV     1   --> A              
     e(110 -110) =     16.31802  eV     1   --> A              
     e(111 -111) =     16.60516  eV     1   --> A              
     e(112 -112) =     16.65507  eV     1   --> A              
     e(113 -113) =     16.72240  eV     1   --> A              
     e(114 -114) =     16.80728  eV     1   --> A              
     e(115 -115) =     16.93012  eV     1   --> A              
     e(116 -116) =     17.00087  eV     1   --> A              
     e(117 -117) =     17.04635  eV     1   --> A              
     e(118 -118) =     17.35376  eV     1   --> A              
     e(119 -119) =     17.41639  eV     1   --> A              
     e(120 -120) =     17.63225  eV     1   --> A              
     e(121 -121) =     17.74302  eV     1   --> A              
     e(122 -122) =     17.86310  eV     1   --> A              
     e(123 -123) =     17.92385  eV     1   --> A              
     e(124 -124) =     18.09517  eV     1   --> A              
     e(125 -125) =     18.53337  eV     1   --> A              
     e(126 -126) =     18.97894  eV     1   --> A              
     e(127 -127) =     19.00701  eV     1   --> A              
     e(128 -128) =     19.14130  eV     1   --> A              
     e(129 -129) =     19.22183  eV     1   --> A              
     e(130 -130) =     19.43043  eV     1   --> A              
     e(131 -131) =     19.55339  eV     1   --> A              
     e(132 -132) =     20.01702  eV     1   --> A              
     e(133 -133) =     20.06920  eV     1   --> A              
     e(134 -134) =     20.21633  eV     1   --> A              
     e(135 -135) =     20.41135  eV     1   --> A              
     e(136 -136) =     20.55886  eV     1   --> A              
     e(137 -137) =     20.58926  eV     1   --> A              
     e(138 -138) =     20.83647  eV     1   --> A              
     e(139 -139) =     21.07476  eV     1   --> A              
     e(140 -140) =     21.43963  eV     1   --> A              
     e(141 -141) =     21.58957  eV     1   --> A              
     e(142 -142) =     21.75294  eV     1   --> A              
     e(143 -143) =     21.98127  eV     1   --> A              
     e(144 -144) =     22.05978  eV     1   --> A              

 **************************************************************************

 **************************************************************************

                    xk=(   0.00000,   0.00000,   0.00000  )

     Band symmetry, C_1 (1)     point group:

     e(  1 -  1) =    -17.00520  eV     1   --> A              
     e(  2 -  2) =    -16.49649  eV     1   --> A              
     e(  3 -  3) =    -15.98241  eV     1   --> A              
     e(  4 -  4) =    -15.42204  eV     1   --> A              
     e(  5 -  5) =    -15.19409  eV     1   --> A              
     e(  6 -  6) =    -15.16913  eV     1   --> A              
     e(  7 -  7) =    -15.15608  eV     1   --> A              
     e(  8 -  8) =    -15.02941  eV     1   --> A              
     e(  9 -  9) =    -14.78210  eV     1   --> A              
     e( 10 - 10) =    -14.50041  eV     1   --> A              
     e( 11 - 11) =    -14.46183  eV     1   --> A              
     e( 12 - 12) =    -14.41175  eV     1   --> A              
     e( 13 - 13) =    -14.34190  eV     1   --> A              
     e( 14 - 14) =    -14.23965  eV     1   --> A              
     e( 15 - 15) =    -14.16428  eV     1   --> A              
     e( 16 - 16) =    -14.01098  eV     1   --> A              
     e( 17 - 17) =    -13.94434  eV     1   --> A              
     e( 18 - 18) =    -13.90354  eV     1   --> A              
     e( 19 - 19) =     -6.54699  eV     1   --> A              
     e( 20 - 20) =     -5.38908  eV     1   --> A              
     e( 21 - 21) =     -3.97271  eV     1   --> A              
     e( 22 - 22) =     -3.87192  eV     1   --> A              
     e( 23 - 23) =     -3.51834  eV     1   --> A              
     e( 24 - 24) =     -3.32617  eV     1   --> A              
     e( 25 - 25) =     -3.32197  eV     1   --> A              
     e( 26 - 26) =     -3.23256  eV     1   --> A              
     e( 27 - 27) =     -3.12016  eV     1   --> A              
     e( 28 - 28) =     -2.87715  eV     1   --> A              
     e( 29 - 29) =     -2.69258  eV     1   --> A              
     e( 30 - 30) =     -2.51089  eV     1   --> A              
     e( 31 - 31) =     -2.34934  eV     1   --> A              
     e( 32 - 32) =     -2.29758  eV     1   --> A              
     e( 33 - 33) =     -1.99940  eV     1   --> A              
     e( 34 - 34) =     -1.89329  eV     1   --> A              
     e( 35 - 35) =     -1.67531  eV     1   --> A              
     e( 36 - 36) =     -1.43140  eV     1   --> A              
     e( 37 - 37) =     -1.12537  eV     1   --> A              
     e( 38 - 38) =     -0.96576  eV     1   --> A              
     e( 39 - 39) =     -0.77090  eV     1   --> A              
     e( 40 - 40) =     -0.71794  eV     1   --> A              
     e( 41 - 41) =     -0.56587  eV     1   --> A              
     e( 42 - 42) =     -0.42697  eV     1   --> A              
     e( 43 - 43) =     -0.09750  eV     1   --> A              
     e( 44 - 44) =      0.03943  eV     1   --> A              
     e( 45 - 45) =      0.08928  eV     1   --> A              
     e( 46 - 46) =      0.25000  eV     1   --> A              
     e( 47 - 47) =      0.31476  eV     1   --> A              
     e( 48 - 48) =      0.45603  eV     1   --> A              
     e( 49 - 49) =      0.52491  eV     1   --> A              
     e( 50 - 50) =      0.54211  eV     1   --> A              
     e( 51 - 51) =      0.72343  eV     1   --> A              
     e( 52 - 52) =      0.79249  eV     1   --> A              
     e( 53 - 53) =      0.93855  eV     1   --> A              
     e( 54 - 54) =      0.93902  eV     1   --> A              
     e( 55 - 55) =      1.31506  eV     1   --> A              
     e( 56 - 56) =      1.40501  eV     1   --> A              
     e( 57 - 57) =      1.43742  eV     1   --> A              
     e( 58 - 58) =      1.48220  eV     1   --> A              
     e( 59 - 59) =      1.59800  eV     1   --> A              
     e( 60 - 60) =      1.68390  eV     1   --> A              
     e( 61 - 61) =      1.83214  eV     1   --> A              
     e( 62 - 62) =      1.87576  eV     1   --> A              
     e( 63 - 63) =      2.07026  eV     1   --> A              
     e( 64 - 64) =      2.25082  eV     1   --> A              
     e( 65 - 65) =      2.28212  eV     1   --> A              
     e( 66 - 66) =      2.38339  eV     1   --> A              
     e( 67 - 67) =      2.43788  eV     1   --> A              
     e( 68 - 68) =      2.50976  eV     1   --> A              
     e( 69 - 69) =      2.65869  eV     1   --> A              
     e( 70 - 70) =      2.89116  eV     1   --> A              
     e( 71 - 71) =      2.93559  eV     1   --> A              
     e( 72 - 72) =      3.00558  eV     1   --> A              
     e( 73 - 73) =      7.88865  eV     1   --> A              
     e( 74 - 74) =     10.05951  eV     1   --> A              
     e( 75 - 75) =     10.57995  eV     1   --> A              
     e( 76 - 76) =     10.78702  eV     1   --> A              
     e( 77 - 77) =     11.21754  eV     1   --> A              
     e( 78 - 78) =     11.24280  eV     1   --> A              
     e( 79 - 79) =     11.55958  eV     1   --> A              
     e( 80 - 80) =     11.57940  eV     1   --> A              
     e( 81 - 81) =     11.77379  eV     1   --> A              
     e( 82 - 82) =     11.94142  eV     1   --> A              
     e( 83 - 83) =     12.15084  eV     1   --> A              
     e( 84 - 84) =     12.41093  eV     1   --> A              
     e( 85 - 85) =     12.44709  eV     1   --> A              
     e( 86 - 86) =     12.58099  eV     1   --> A              
     e( 87 - 87) =     12.74502  eV     1   --> A              
     e( 88 - 88) =     12.79108  eV     1   --> A              
     e( 89 - 89) =     12.90174  eV     1   --> A              
     e( 90 - 90) =     13.22486  eV     1   --> A              
     e( 91 - 91) =     13.45325  eV     1   --> A              
     e( 92 - 92) =     13.78170  eV     1   --> A              
     e( 93 - 93) =     13.89313  eV     1   --> A              
     e( 94 - 94) =     14.20214  eV     1   --> A              
     e( 95 - 95) =     14.43669  eV     1   --> A              
     e( 96 - 96) =     14.46139  eV     1   --> A              
     e( 97 - 97) =     14.60931  eV     1   --> A              
     e( 98 - 98) =     14.68109  eV     1   --> A              
     e( 99 - 99) =     14.90742  eV     1   --> A              
     e(100 -100) =     15.12947  eV     1   --> A              
     e(101 -101) =     15.16842  eV     1   --> A              
     e(102 -102) =     15.57029  eV     1   --> A              
     e(103 -103) =     15.64453  eV     1   --> A              
     e(104 -104) =     15.71619  eV     1   --> A              
     e(105 -105) =     15.87586  eV     1   --> A              
     e(106 -106) =     15.93063  eV     1   --> A              
     e(107 -107) =     15.98492  eV     1   --> A              
     e(108 -108) =     16.00407  eV     1   --> A              
     e(109 -109) =     16.22802  eV     1   --> A              
     e(110 -110) =     16.28110  eV     1   --> A              
     e(111 -111) =     16.59805  eV     1   --> A              
     e(112 -112) =     16.62028  eV     1   --> A              
     e(113 -113) =     16.82264  eV     1   --> A              
     e(114 -114) =     16.83527  eV     1   --> A              
     e(115 -115) =     16.90385  eV     1   --> A              
     e(116 -116) =     16.95848  eV     1   --> A              
     e(117 -117) =     17.05914  eV     1   --> A              
     e(118 -118) =     17.31309  eV     1   --> A              
     e(119 -119) =     17.38631  eV     1   --> A              
     e(120 -120) =     17.63019  eV     1   --> A              
     e(121 -121) =     17.72507  eV     1   --> A              
     e(122 -122) =     17.87548  eV     1   --> A              
     e(123 -123) =     17.88753  eV     1   --> A              
     e(124 -124) =     18.11083  eV     1   --> A              
     e(125 -125) =     18.52012  eV     1   --> A              
     e(126 -126) =     19.01273  eV     1   --> A              
     e(127 -127) =     19.03483  eV     1   --> A              
     e(128 -128) =     19.15232  eV     1   --> A              
     e(129 -129) =     19.17657  eV     1   --> A              
     e(130 -130) =     19.38808  eV     1   --> A              
     e(131 -131) =     19.65579  eV     1   --> A              
     e(132 -132) =     19.97406  eV     1   --> A              
     e(133 -133) =     20.12747  eV     1   --> A              
     e(134 -134) =     20.23592  eV     1   --> A              
     e(135 -135) =     20.52395  eV     1   --> A              
     e(136 -136) =     20.56298  eV     1   --> A              
     e(137 -137) =     20.69448  eV     1   --> A              
     e(138 -138) =     20.76480  eV     1   --> A              
     e(139 -139) =     21.07524  eV     1   --> A              
     e(140 -140) =     21.38951  eV     1   --> A              
     e(141 -141) =     21.77707  eV     1   --> A              
     e(142 -142) =     21.78660  eV     1   --> A              
     e(143 -143) =     21.92005  eV     1   --> A              
     e(144 -144) =     21.94806  eV     1   --> A              

 **************************************************************************
 
     BANDS        :     13.98s CPU     28.17s WALL

 
   This run was terminated on:  17:56:52   2Oct2020            

=------------------------------------------------------------------------------=
   JOB DONE.
=------------------------------------------------------------------------------=
