
     Program PWSCF v.6.4.1 starts on  1Oct2020 at 18:58:58 

     This program is part of the open-source Quantum ESPRESSO suite
     for quantum simulation of materials; please cite
         "P. Giannozzi et al., J. Phys.:Condens. Matter 21 395502 (2009);
         "P. Giannozzi et al., J. Phys.:Condens. Matter 29 465901 (2017);
          URL http://www.quantum-espresso.org", 
     in publications or presentations arising from this work. More details at
     http://www.quantum-espresso.org/quote

     Parallel version (MPI), running on    16 processors

     MPI processes distributed on     1 nodes
     R & G space division:  proc/nbgrp/npool/nimage =      16
     Waiting for input...
     Reading input from standard input
Warning: card &IONS ignored
Warning: card / ignored

     Current dimensions of program PWSCF are:
     Max number of different atomic species (ntypx) = 10
     Max number of k-points (npk) =  40000
     Max angular momentum in pseudopotentials (lmaxx) =  3

     IMPORTANT: XC functional enforced from input :
     Exchange-correlation      = WC ( 1  4 11  4 0 0)
     Any further DFT definition will be discarded
     Please, verify this is what you really want


     Subspace diagonalization in iterative solution of the eigenvalue problem:
     a serial algorithm will be used

 
     Parallelization info
     --------------------
     sticks:   dense  smooth     PW     G-vecs:    dense   smooth      PW
     Min         264     132     37                13472     4763     716
     Max         265     133     38                13475     4764     719
     Sum        4227    2125    599               215577    76213   11481
 


     bravais-lattice index     =           14
     lattice parameter (alat)  =       9.7841  a.u.
     unit-cell volume          =    2229.9467 (a.u.)^3
     number of atoms/cell      =           34
     number of atomic types    =            4
     number of electrons       =       144.00
     number of Kohn-Sham states=          144
     kinetic-energy cutoff     =      40.0000  Ry
     charge density cutoff     =     320.0000  Ry
     convergence threshold     =      1.0E-07
     mixing beta               =       0.2000
     number of iterations used =            8  plain     mixing
     Exchange-correlation      = WC ( 1  4 11  4 0 0)

     celldm(1)=   9.784060  celldm(2)=   1.736180  celldm(3)=   1.418960
     celldm(4)=  -0.026700  celldm(5)=  -0.255600  celldm(6)=   0.004100

     crystal axes: (cart. coord. in units of alat)
               a(1) = (   1.000000   0.000000   0.000000 )  
               a(2) = (   0.007118   1.736165   0.000000 )  
               a(3) = (  -0.362686  -0.036400   1.371343 )  

     reciprocal axes: (cart. coord. in units 2 pi/alat)
               b(1) = (  1.000000 -0.004100  0.264366 )  
               b(2) = (  0.000000  0.575982  0.015288 )  
               b(3) = (  0.000000  0.000000  0.729212 )  


     PseudoPot. # 1 for Al read from file:
     /home/rygrim1/bennettj_user/Work/Lead_oxides/PbCO3_14/Surface_calcs/QE_calcs/QE-PSPs/al_pbe_v1.uspp.F.UPF
     MD5 check sum: 0a6289f5291fc8f409219462bc851e1f
     Pseudo is Ultrasoft + core correction, Zval =  3.0
     Generated by new atomic code, or converted to UPF format
     Using radial grid of  893 points,  3 beta functions with: 
                l(1) =   0
                l(2) =   1
                l(3) =   2
     Q(r) pseudized with  8 coefficients,  rinner =    0.900   0.900   0.900
                                                       0.900   0.900

     PseudoPot. # 2 for Si read from file:
     /home/rygrim1/bennettj_user/Work/Lead_oxides/PbCO3_14/Surface_calcs/QE_calcs/QE-PSPs/si_pbe_v1.uspp.F.UPF
     MD5 check sum: a056efeee980c13900f22a371efd63c1
     Pseudo is Ultrasoft + core correction, Zval =  4.0
     Generated by new atomic code, or converted to UPF format
     Using radial grid of  899 points,  6 beta functions with: 
                l(1) =   0
                l(2) =   0
                l(3) =   1
                l(4) =   1
                l(5) =   2
                l(6) =   2
     Q(r) pseudized with  8 coefficients,  rinner =    0.900   0.900   0.900
                                                       0.900   0.900

     PseudoPot. # 3 for O  read from file:
     /home/rygrim1/bennettj_user/Work/Lead_oxides/PbCO3_14/Surface_calcs/QE_calcs/QE-PSPs/o_pbe_v1.2.uspp.F.UPF
     MD5 check sum: 734c27235a0248c51dbae37a1fbe46ec
     Pseudo is Ultrasoft + core correction, Zval =  6.0
     Generated by new atomic code, or converted to UPF format
     Using radial grid of  737 points,  5 beta functions with: 
                l(1) =   0
                l(2) =   0
                l(3) =   1
                l(4) =   1
                l(5) =   2
     Q(r) pseudized with  8 coefficients,  rinner =    0.900   0.900   0.900
                                                       0.900   0.900

     PseudoPot. # 4 for H  read from file:
     /home/rygrim1/bennettj_user/Work/Lead_oxides/PbCO3_14/Surface_calcs/QE_calcs/QE-PSPs/h_pbe_v1.4.uspp.F.UPF
     MD5 check sum: 761ae9a214b05c3daf00ab9f6b793d6f
     Pseudo is Ultrasoft, Zval =  1.0
     Generated by new atomic code, or converted to UPF format
     Using radial grid of  615 points,  2 beta functions with: 
                l(1) =   0
                l(2) =   0
     Q(r) pseudized with  8 coefficients,  rinner =    0.700

     atomic species   valence    mass     pseudopotential
        Al             3.00    26.98200     Al( 1.00)
        Si             4.00    28.08500     Si( 1.00)
        O              6.00    15.99990     O ( 1.00)
        H              1.00     1.00780     H ( 1.00)

     No symmetry found



   Cartesian axes

     site n.     atom                  positions (alat units)
         1           Al  tau(   1) = (   0.1957968   0.8351568   0.6335880  )
         2           Al  tau(   2) = (   0.1910591   1.4188789   0.6291218  )
         3           Al  tau(   3) = (   0.6921976  -0.0329333   0.6335951  )
         4           Al  tau(   4) = (   0.6875363   0.5507990   0.6291025  )
         5           Si  tau(   5) = (   0.0353528   0.5808748   0.0977402  )
         6           Si  tau(   6) = (   0.0506328   1.1511769   0.0998255  )
         7           Si  tau(   7) = (   0.5388376   1.4489568   0.0977675  )
         8           Si  tau(   8) = (   0.5471400   0.2830992   0.0997992  )
         9           O   tau(   9) = (   0.0061371   0.5962548   0.4075673  )
        10           O   tau(  10) = (   0.0770622   1.1343438   0.4093118  )
        11           O   tau(  11) = (   0.0792902   0.8650127  -0.0347831  )
        12           O   tau(  12) = (   0.2696521   0.3938088  -0.0030774  )
        13           O   tau(  13) = (   0.2754849   1.3294572  -0.0337062  )
        14           O   tau(  14) = (   0.5096304   1.4643547   0.4075921  )
        15           O   tau(  15) = (   0.5735298   0.2662866   0.4092889  )
        16           O   tau(  16) = (   0.5757452  -0.0030920  -0.0347696  )
        17           O   tau(  17) = (   0.7730988   1.2618176  -0.0030069  )
        18           O   tau(  18) = (   0.7720323   0.4613155  -0.0337446  )
        19           O   tau(  19) = (  -0.0029261  -0.0712584   0.4198833  )
        20           O   tau(  20) = (  -0.1942841   0.2613300   0.8061647  )
        21           O   tau(  21) = (  -0.1153259   0.7934419   0.8057639  )
        22           O   tau(  22) = (  -0.1127811   1.4593275   0.8157824  )
        23           O   tau(  23) = (   0.5006732   0.7968395   0.4198689  )
        24           O   tau(  24) = (   0.3092568   1.1294247   0.8061924  )
        25           O   tau(  25) = (   0.3810706  -0.0746176   0.8057807  )
        26           O   tau(  26) = (   0.3837099   0.5912751   0.8157874  )
        27           H   tau(  27) = (   0.0925154   0.0935184   0.4268321  )
        28           H   tau(  28) = (  -0.1385803   0.2667385   0.9875656  )
        29           H   tau(  29) = (  -0.1545235   0.8382736   0.9865800  )
        30           H   tau(  30) = (  -0.1422378   1.3889989   0.9898497  )
        31           H   tau(  31) = (   0.5961444   0.9616001   0.4267555  )
        32           H   tau(  32) = (   0.3649390   1.1348161   0.9876003  )
        33           H   tau(  33) = (   0.3419181  -0.0298343   0.9866137  )
        34           H   tau(  34) = (   0.3542462   0.5209526   0.9898548  )

     number of k points=   108  gaussian smearing, width (Ry)=  0.0200

     Number of k-points >= 100: set verbosity='high' to print them.

     Dense  grid:   215577 G-vectors     FFT dimensions: (  60, 100,  80)

     Smooth grid:    76213 G-vectors     FFT dimensions: (  40,  72,  60)

     Estimated max dynamical RAM per process >     205.46 MB

     Estimated total dynamical RAM >       3.21 GB

     Initial potential from superposition of free atoms

     starting charge  143.98736, renormalised to  144.00000
     Starting wfcs are  112 randomized atomic wfcs +   32 random wfcs

     total cpu time spent up to now is        9.0 secs

     Self-consistent Calculation

     iteration #  1     ecut=    40.00 Ry     beta= 0.20
     Davidson diagonalization with overlap
     ethr =  1.00E-02,  avg # of iterations =  5.3

     total cpu time spent up to now is      100.6 secs

     total energy              =    -657.77994533 Ry
     Harris-Foulkes estimate   =    -659.52919893 Ry
     estimated scf accuracy    <       6.13646542 Ry

     iteration #  2     ecut=    40.00 Ry     beta= 0.20
     Davidson diagonalization with overlap
     ethr =  4.26E-03,  avg # of iterations =  1.0

     total cpu time spent up to now is      125.0 secs

     total energy              =    -657.41043843 Ry
     Harris-Foulkes estimate   =    -658.09226223 Ry
     estimated scf accuracy    <       1.59206759 Ry

     iteration #  3     ecut=    40.00 Ry     beta= 0.20
     Davidson diagonalization with overlap
     ethr =  1.11E-03,  avg # of iterations =  2.1

     total cpu time spent up to now is      155.0 secs

     total energy              =    -657.66550443 Ry
     Harris-Foulkes estimate   =    -657.68614507 Ry
     estimated scf accuracy    <       0.14031992 Ry

     iteration #  4     ecut=    40.00 Ry     beta= 0.20
     Davidson diagonalization with overlap
     ethr =  9.74E-05,  avg # of iterations =  4.3

     total cpu time spent up to now is      196.3 secs

     total energy              =    -657.67310996 Ry
     Harris-Foulkes estimate   =    -657.68124315 Ry
     estimated scf accuracy    <       0.03540921 Ry

     iteration #  5     ecut=    40.00 Ry     beta= 0.20
     Davidson diagonalization with overlap
     ethr =  2.46E-05,  avg # of iterations =  4.2

     total cpu time spent up to now is      235.7 secs

     total energy              =    -657.67488958 Ry
     Harris-Foulkes estimate   =    -657.67577607 Ry
     estimated scf accuracy    <       0.00376159 Ry

     iteration #  6     ecut=    40.00 Ry     beta= 0.20
     Davidson diagonalization with overlap
     ethr =  2.61E-06,  avg # of iterations =  4.8

     total cpu time spent up to now is      284.8 secs

     total energy              =    -657.67560431 Ry
     Harris-Foulkes estimate   =    -657.67555588 Ry
     estimated scf accuracy    <       0.00025813 Ry

     iteration #  7     ecut=    40.00 Ry     beta= 0.20
     Davidson diagonalization with overlap
     ethr =  1.79E-07,  avg # of iterations =  3.0

     negative rho (up, down):  3.696E-08 0.000E+00

     total cpu time spent up to now is      319.2 secs

     total energy              =    -657.67565007 Ry
     Harris-Foulkes estimate   =    -657.67563444 Ry
     estimated scf accuracy    <       0.00006798 Ry

     iteration #  8     ecut=    40.00 Ry     beta= 0.20
     Davidson diagonalization with overlap
     ethr =  4.72E-08,  avg # of iterations =  1.0

     negative rho (up, down):  8.927E-08 0.000E+00

     total cpu time spent up to now is      343.5 secs

     total energy              =    -657.67566200 Ry
     Harris-Foulkes estimate   =    -657.67565540 Ry
     estimated scf accuracy    <       0.00002528 Ry

     iteration #  9     ecut=    40.00 Ry     beta= 0.20
     Davidson diagonalization with overlap
     ethr =  1.76E-08,  avg # of iterations =  1.0

     negative rho (up, down):  1.246E-07 0.000E+00

     total cpu time spent up to now is      367.7 secs

     total energy              =    -657.67567444 Ry
     Harris-Foulkes estimate   =    -657.67566643 Ry
     estimated scf accuracy    <       0.00000075 Ry

     iteration # 10     ecut=    40.00 Ry     beta= 0.20
     Davidson diagonalization with overlap
     ethr =  5.18E-10,  avg # of iterations =  2.8

     negative rho (up, down):  1.345E-07 0.000E+00

     total cpu time spent up to now is      405.8 secs

     total energy              =    -657.67567942 Ry
     Harris-Foulkes estimate   =    -657.67567462 Ry
     estimated scf accuracy    <       0.00000041 Ry

     iteration # 11     ecut=    40.00 Ry     beta= 0.20
     Davidson diagonalization with overlap
     ethr =  2.86E-10,  avg # of iterations =  2.0

     negative rho (up, down):  1.688E-07 0.000E+00

     total cpu time spent up to now is      438.3 secs

     End of self-consistent calculation

     Number of k-points >= 100: set verbosity='high' to print the bands.

     the Fermi energy is     5.1311 ev

!    total energy              =    -657.67568798 Ry
     Harris-Foulkes estimate   =    -657.67567950 Ry
     estimated scf accuracy    <       0.00000002 Ry

     The total energy is the sum of the following terms:

     one-electron contribution =    -298.88114806 Ry
     hartree contribution      =     227.77945461 Ry
     xc contribution           =    -173.08235603 Ry
     ewald contribution        =    -413.49163851 Ry
     smearing contrib. (-TS)   =      -0.00000000 Ry

     convergence has been achieved in  11 iterations

     Writing output data file kaol.save/
 
     init_run     :      8.37s CPU      8.84s WALL (       1 calls)
     electrons    :    417.87s CPU    429.36s WALL (       1 calls)

     Called by init_run:
     wfcinit      :      7.63s CPU      8.03s WALL (       1 calls)
     potinit      :      0.24s CPU      0.24s WALL (       1 calls)
     hinit0       :      0.38s CPU      0.42s WALL (       1 calls)

     Called by electrons:
     c_bands      :    382.79s CPU    391.64s WALL (      11 calls)
     sum_band     :     33.94s CPU     36.19s WALL (      11 calls)
     v_of_rho     :      0.17s CPU      0.18s WALL (      12 calls)
     newd         :      1.01s CPU      1.39s WALL (      12 calls)
     mix_rho      :      0.03s CPU      0.03s WALL (      11 calls)

     Called by c_bands:
     init_us_2    :      3.73s CPU      3.79s WALL (    2484 calls)
     cegterg      :    369.12s CPU    377.72s WALL (    1188 calls)

     Called by sum_band:
     sum_band:bec :      0.46s CPU      0.47s WALL (    1188 calls)
     addusdens    :      1.05s CPU      1.53s WALL (      11 calls)

     Called by *egterg:
     h_psi        :    134.02s CPU    140.51s WALL (    4681 calls)
     s_psi        :     16.57s CPU     16.65s WALL (    4681 calls)
     g_psi        :      0.51s CPU      0.51s WALL (    3385 calls)
     cdiaghg      :    178.76s CPU    179.37s WALL (    4573 calls)

     Called by h_psi:
     h_psi:pot    :    132.83s CPU    139.30s WALL (    4681 calls)
     h_psi:calbec :     16.95s CPU     18.37s WALL (    4681 calls)
     vloc_psi     :     99.15s CPU    104.09s WALL (    4681 calls)
     add_vuspsi   :     16.69s CPU     16.81s WALL (    4681 calls)

     General routines
     calbec       :     23.61s CPU     25.61s WALL (    5869 calls)
     fft          :      0.10s CPU      0.14s WALL (     154 calls)
     ffts         :      0.01s CPU      0.01s WALL (      23 calls)
     fftw         :    109.40s CPU    114.76s WALL (  982530 calls)
     interpolate  :      0.01s CPU      0.01s WALL (      12 calls)
 
     Parallel routines
     fft_scatt_xy :     13.51s CPU     14.19s WALL (  982707 calls)
     fft_scatt_yz :     40.04s CPU     42.03s WALL (  982707 calls)
 
     PWSCF        :   7m 7.82s CPU   7m29.59s WALL

 
   This run was terminated on:  19: 6:28   1Oct2020            

=------------------------------------------------------------------------------=
   JOB DONE.
=------------------------------------------------------------------------------=
