
     Program PWSCF v.6.4.1 starts on  1Oct2020 at 15:36:59 

     This program is part of the open-source Quantum ESPRESSO suite
     for quantum simulation of materials; please cite
         "P. Giannozzi et al., J. Phys.:Condens. Matter 21 395502 (2009);
         "P. Giannozzi et al., J. Phys.:Condens. Matter 29 465901 (2017);
          URL http://www.quantum-espresso.org", 
     in publications or presentations arising from this work. More details at
     http://www.quantum-espresso.org/quote

     Parallel version (MPI), running on    16 processors

     MPI processes distributed on     1 nodes
     R & G space division:  proc/nbgrp/npool/nimage =      16
     Waiting for input...
     Reading input from standard input
Warning: card &IONS ignored
Warning: card / ignored

     Current dimensions of program PWSCF are:
     Max number of different atomic species (ntypx) = 10
     Max number of k-points (npk) =  40000
     Max angular momentum in pseudopotentials (lmaxx) =  3

     IMPORTANT: XC functional enforced from input :
     Exchange-correlation      = WC ( 1  4 11  4 0 0)
     Any further DFT definition will be discarded
     Please, verify this is what you really want


     Subspace diagonalization in iterative solution of the eigenvalue problem:
     a serial algorithm will be used

 
     Parallelization info
     --------------------
     sticks:   dense  smooth     PW     G-vecs:    dense   smooth      PW
     Min         529     265     71                94356    33362    4676
     Max         530     266     72                94362    33365    4679
     Sum        8469    4241   1141              1509749   533819   74839
 


     bravais-lattice index     =           14
     lattice parameter (alat)  =      19.5695  a.u.
     unit-cell volume          =   15617.8321 (a.u.)^3
     number of atoms/cell      =           72
     number of atomic types    =            5
     number of electrons       =       312.00
     number of Kohn-Sham states=          312
     kinetic-energy cutoff     =      40.0000  Ry
     charge density cutoff     =     320.0000  Ry
     convergence threshold     =      1.0E-07
     mixing beta               =       0.2000
     number of iterations used =            8  plain     mixing
     Exchange-correlation      = WC ( 1  4 11  4 0 0)

     celldm(1)=  19.569520  celldm(2)=   0.868195  celldm(3)=   2.483480
     celldm(4)=  -0.028100  celldm(5)=  -0.255200  celldm(6)=   0.003900

     crystal axes: (cart. coord. in units of alat)
               a(1) = (   1.000000   0.000000   0.000000 )  
               a(2) = (   0.003386   0.868188   0.000000 )  
               a(3) = (  -0.633784  -0.067315   2.400304 )  

     reciprocal axes: (cart. coord. in units 2 pi/alat)
               b(1) = (  1.000000 -0.003900  0.263934 )  
               b(2) = (  0.000000  1.151824  0.032302 )  
               b(3) = (  0.000000  0.000000  0.416614 )  


     PseudoPot. # 1 for Al read from file:
     /home/rygrim1/bennettj_user/Work/Lead_oxides/PbCO3_14/Surface_calcs/QE_calcs/QE-PSPs/al_pbe_v1.uspp.F.UPF
     MD5 check sum: 0a6289f5291fc8f409219462bc851e1f
     Pseudo is Ultrasoft + core correction, Zval =  3.0
     Generated by new atomic code, or converted to UPF format
     Using radial grid of  893 points,  3 beta functions with: 
                l(1) =   0
                l(2) =   1
                l(3) =   2
     Q(r) pseudized with  8 coefficients,  rinner =    0.900   0.900   0.900
                                                       0.900   0.900

     PseudoPot. # 2 for Si read from file:
     /home/rygrim1/bennettj_user/Work/Lead_oxides/PbCO3_14/Surface_calcs/QE_calcs/QE-PSPs/si_pbe_v1.uspp.F.UPF
     MD5 check sum: a056efeee980c13900f22a371efd63c1
     Pseudo is Ultrasoft + core correction, Zval =  4.0
     Generated by new atomic code, or converted to UPF format
     Using radial grid of  899 points,  6 beta functions with: 
                l(1) =   0
                l(2) =   0
                l(3) =   1
                l(4) =   1
                l(5) =   2
                l(6) =   2
     Q(r) pseudized with  8 coefficients,  rinner =    0.900   0.900   0.900
                                                       0.900   0.900

     PseudoPot. # 3 for O  read from file:
     /home/rygrim1/bennettj_user/Work/Lead_oxides/PbCO3_14/Surface_calcs/QE_calcs/QE-PSPs/o_pbe_v1.2.uspp.F.UPF
     MD5 check sum: 734c27235a0248c51dbae37a1fbe46ec
     Pseudo is Ultrasoft + core correction, Zval =  6.0
     Generated by new atomic code, or converted to UPF format
     Using radial grid of  737 points,  5 beta functions with: 
                l(1) =   0
                l(2) =   0
                l(3) =   1
                l(4) =   1
                l(5) =   2
     Q(r) pseudized with  8 coefficients,  rinner =    0.900   0.900   0.900
                                                       0.900   0.900

     PseudoPot. # 4 for H  read from file:
     /home/rygrim1/bennettj_user/Work/Lead_oxides/PbCO3_14/Surface_calcs/QE_calcs/QE-PSPs/h_pbe_v1.4.uspp.F.UPF
     MD5 check sum: 761ae9a214b05c3daf00ab9f6b793d6f
     Pseudo is Ultrasoft, Zval =  1.0
     Generated by new atomic code, or converted to UPF format
     Using radial grid of  615 points,  2 beta functions with: 
                l(1) =   0
                l(2) =   0
     Q(r) pseudized with  8 coefficients,  rinner =    0.700

     PseudoPot. # 5 for S  read from file:
     /home/rygrim1/bennettj_user/Work/Lead_oxides/PbCO3_14/Surface_calcs/QE_calcs/QE-PSPs/s_pbe_v1.4.uspp.F.UPF
     MD5 check sum: 88d86576ff6df21479756cfb9bdac1df
     Pseudo is Ultrasoft + core correction, Zval =  6.0
     Generated by new atomic code, or converted to UPF format
     Using radial grid of  907 points,  6 beta functions with: 
                l(1) =   0
                l(2) =   0
                l(3) =   1
                l(4) =   1
                l(5) =   2
                l(6) =   2
     Q(r) pseudized with  8 coefficients,  rinner =    1.300   1.300   1.300
                                                       1.300   1.300

     atomic species   valence    mass     pseudopotential
        Al             3.00    26.98200     Al( 1.00)
        Si             4.00    28.08500     Si( 1.00)
        O              6.00    15.99990     O ( 1.00)
        H              1.00     1.00780     H ( 1.00)
        S              6.00    32.06500     S ( 1.00)

     No symmetry found



   Cartesian axes

     site n.     atom                  positions (alat units)
         1           Al  tau(   1) = (   0.1051583   0.4134445   0.3231520  )
         2           Al  tau(   2) = (   0.1114035   0.6996596   0.3118823  )
         3           Al  tau(   3) = (   0.3460528  -0.0155831   0.3171452  )
         4           Al  tau(   4) = (   0.3538179   0.2719814   0.3201246  )
         5           Al  tau(   5) = (   0.6044844   0.4176425   0.3184616  )
         6           Al  tau(   6) = (   0.5913872   0.7092734   0.3140162  )
         7           Al  tau(   7) = (   0.8302301  -0.0106231   0.3197138  )
         8           Al  tau(   8) = (   0.8528603   0.2748896   0.3243325  )
         9           Si  tau(   9) = (   0.0185560   0.2840882   0.0582458  )
        10           Si  tau(  10) = (   0.0274352   0.5688478   0.0566195  )
        11           Si  tau(  11) = (   0.2695105   0.7195048   0.0516768  )
        12           Si  tau(  12) = (   0.2737562   0.1360624   0.0558265  )
        13           Si  tau(  13) = (   0.5181355   0.2846874   0.0569794  )
        14           Si  tau(  14) = (   0.5271725   0.5689389   0.0551793  )
        15           Si  tau(  15) = (   0.7683004   0.7200228   0.0574455  )
        16           Si  tau(  16) = (   0.7754017   0.1369354   0.0576235  )
        17           O   tau(  17) = (   0.0063909   0.2930689   0.2162860  )
        18           O   tau(  18) = (   0.0474527   0.5614591   0.2138281  )
        19           O   tau(  19) = (   0.0459835   0.4257163  -0.0038084  )
        20           O   tau(  20) = (   0.1310447   0.1847822   0.0141321  )
        21           O   tau(  21) = (   0.1336892   0.6653895  -0.0067507  )
        22           O   tau(  22) = (   0.2540579   0.7307124   0.2094575  )
        23           O   tau(  23) = (   0.5056839   0.2966847   0.2144755  )
        24           O   tau(  24) = (   0.5452984   0.5612563   0.2128427  )
        25           O   tau(  25) = (   0.5484161   0.4255101  -0.0054387  )
        26           O   tau(  26) = (   0.6299509   0.1810269   0.0188460  )
        27           O   tau(  27) = (   0.6348554   0.6657961  -0.0053819  )
        28           O   tau(  28) = (   0.7488585   0.7339735   0.2148306  )
        29           O   tau(  29) = (   0.2884231   0.1286244   0.2133444  )
        30           O   tau(  30) = (   0.2950669  -0.0069987  -0.0074865  )
        31           O   tau(  31) = (   0.3823792   0.6162613   0.0166925  )
        32           O   tau(  32) = (   0.3835346   0.2312401  -0.0035027  )
        33           O   tau(  33) = (  -0.0075686  -0.0488113   0.2426465  )
        34           O   tau(  34) = (   0.7914770   0.1313890   0.2153372  )
        35           O   tau(  35) = (   0.7972973  -0.0072197  -0.0022363  )
        36           O   tau(  36) = (   0.8811877   0.6164080   0.0243862  )
        37           O   tau(  37) = (   0.8827649   0.2328606  -0.0028780  )
        38           O   tau(  38) = (   0.4953395  -0.0411547   0.2124120  )
        39           O   tau(  39) = (  -0.1015504   0.1222592   0.4178760  )
        40           O   tau(  40) = (  -0.0459238   0.3898567   0.4176931  )
        41           O   tau(  41) = (  -0.1061552   0.6955018   0.4298832  )
        42           O   tau(  42) = (   0.2566321   0.3958393   0.2232909  )
        43           O   tau(  43) = (   0.1557845   0.5643781   0.4202393  )
        44           O   tau(  44) = (   0.1888936  -0.0383945   0.4097527  )
        45           O   tau(  45) = (   0.2022208   0.2903347   0.4179116  )
        46           O   tau(  46) = (   0.4114835   0.1236461   0.4138039  )
        47           O   tau(  47) = (   0.4506775   0.3992144   0.4139232  )
        48           O   tau(  48) = (   0.4382182   0.7194050   0.4092452  )
        49           O   tau(  49) = (   0.7564876   0.3942720   0.2214284  )
        50           O   tau(  50) = (   0.6720072   0.5706881   0.4112239  )
        51           O   tau(  51) = (   0.6721933  -0.0259252   0.4131832  )
        52           O   tau(  52) = (   0.6999421   0.3004376   0.4197865  )
        53           H   tau(  53) = (   0.0392777   0.0341873   0.2374285  )
        54           H   tau(  54) = (  -0.0677309   0.1079322   0.5053975  )
        55           H   tau(  55) = (  -0.0636940   0.4338620   0.5002299  )
        56           H   tau(  56) = (  -0.1806614   0.6297106   0.4113999  )
        57           H   tau(  57) = (   0.2992698   0.4703133   0.1831356  )
        58           H   tau(  58) = (   0.1215698   0.5657068   0.5096161  )
        59           H   tau(  59) = (   0.1806396  -0.0362345   0.5040845  )
        60           H   tau(  60) = (   0.1586978   0.2123315   0.4490311  )
        61           H   tau(  61) = (   0.5369324   0.0302995   0.1659622  )
        62           H   tau(  62) = (   0.5041434   0.1065675   0.4278766  )
        63           H   tau(  63) = (   0.4445185   0.3995571   0.5080968  )
        64           H   tau(  64) = (   0.3883697   0.6393396   0.4217327  )
        65           H   tau(  65) = (   0.7979910   0.4647565   0.1735881  )
        66           H   tau(  66) = (   0.6612358   0.5756051   0.5057239  )
        67           H   tau(  67) = (   0.6866901  -0.0510482   0.5047785  )
        68           H   tau(  68) = (   0.6648658   0.2278190   0.4687439  )
        69           O   tau(  69) = (  -0.2265311   0.7146844   0.6361063  )
        70           S   tau(  70) = (  -0.0924605   0.7008767   0.5945542  )
        71           O   tau(  71) = (  -0.0097721   0.8129701   0.6124717  )
        72           O   tau(  72) = (  -0.0326615   0.5763466   0.6237645  )

     number of k points=     9  gaussian smearing, width (Ry)=  0.0200
                       cart. coord. in units 2pi/alat
        k(    1) = (   0.1666667   0.0953353  -0.1616261), wk =   0.2222222
        k(    2) = (   0.1666667   0.2873059  -0.1562425), wk =   0.2222222
        k(    3) = (   0.1666667   0.4792766  -0.1508588), wk =   0.2222222
        k(    4) = (   0.1666667  -0.4805766  -0.1777771), wk =   0.2222222
        k(    5) = (   0.1666667  -0.2886059  -0.1723935), wk =   0.2222222
        k(    6) = (   0.1666667  -0.0966353  -0.1670098), wk =   0.2222222
        k(    7) = (  -0.5000000   0.0979353  -0.3375821), wk =   0.2222222
        k(    8) = (  -0.5000000   0.2899059  -0.3321984), wk =   0.2222222
        k(    9) = (  -0.5000000   0.4818766  -0.3268147), wk =   0.2222222

     Dense  grid:  1509749 G-vectors     FFT dimensions: ( 120, 100, 288)

     Smooth grid:   533819 G-vectors     FFT dimensions: (  80,  72, 200)

     Estimated max dynamical RAM per process >     659.12 MB

     Estimated total dynamical RAM >      10.30 GB

     Initial potential from superposition of free atoms

     starting charge  311.97467, renormalised to  312.00000

     negative rho (up, down):  4.172E-03 0.000E+00
     Starting wfcs are  240 randomized atomic wfcs +   72 random wfcs

     total cpu time spent up to now is       19.3 secs

     Self-consistent Calculation

     iteration #  1     ecut=    40.00 Ry     beta= 0.20
     Davidson diagonalization with overlap
     ethr =  1.00E-02,  avg # of iterations =  6.0

     negative rho (up, down):  4.459E-03 0.000E+00

     total cpu time spent up to now is      313.0 secs

     total energy              =   -1436.19506045 Ry
     Harris-Foulkes estimate   =   -1440.00081175 Ry
     estimated scf accuracy    <      13.30156223 Ry

     iteration #  2     ecut=    40.00 Ry     beta= 0.20
     Davidson diagonalization with overlap
     ethr =  4.26E-03,  avg # of iterations =  1.0

     negative rho (up, down):  5.962E-03 0.000E+00

     total cpu time spent up to now is      437.0 secs

     total energy              =   -1435.38879412 Ry
     Harris-Foulkes estimate   =   -1436.87956063 Ry
     estimated scf accuracy    <       3.45871893 Ry

     iteration #  3     ecut=    40.00 Ry     beta= 0.20
     Davidson diagonalization with overlap
     ethr =  1.11E-03,  avg # of iterations =  4.9

     negative rho (up, down):  8.776E-03 0.000E+00

     total cpu time spent up to now is      525.1 secs

     total energy              =   -1435.97197639 Ry
     Harris-Foulkes estimate   =   -1436.02663608 Ry
     estimated scf accuracy    <       0.30997379 Ry

     iteration #  4     ecut=    40.00 Ry     beta= 0.20
     Davidson diagonalization with overlap
     ethr =  9.94E-05,  avg # of iterations =  7.1

     negative rho (up, down):  1.015E-02 0.000E+00

     total cpu time spent up to now is      650.1 secs

     total energy              =   -1435.98815376 Ry
     Harris-Foulkes estimate   =   -1436.01280199 Ry
     estimated scf accuracy    <       0.11099904 Ry

     iteration #  5     ecut=    40.00 Ry     beta= 0.20
     Davidson diagonalization with overlap
     ethr =  3.56E-05,  avg # of iterations =  8.7

     negative rho (up, down):  1.025E-02 0.000E+00

     total cpu time spent up to now is      745.5 secs

     total energy              =   -1435.99198996 Ry
     Harris-Foulkes estimate   =   -1435.99537702 Ry
     estimated scf accuracy    <       0.01452380 Ry

     iteration #  6     ecut=    40.00 Ry     beta= 0.20
     Davidson diagonalization with overlap
     ethr =  4.66E-06,  avg # of iterations =  8.7

     negative rho (up, down):  1.009E-02 0.000E+00

     total cpu time spent up to now is      866.6 secs

     total energy              =   -1435.99390015 Ry
     Harris-Foulkes estimate   =   -1435.99383316 Ry
     estimated scf accuracy    <       0.00098048 Ry

     iteration #  7     ecut=    40.00 Ry     beta= 0.20
     Davidson diagonalization with overlap
     ethr =  3.14E-07,  avg # of iterations =  3.2

     negative rho (up, down):  9.890E-03 0.000E+00

     total cpu time spent up to now is      984.7 secs

     total energy              =   -1435.99408407 Ry
     Harris-Foulkes estimate   =   -1435.99404567 Ry
     estimated scf accuracy    <       0.00010712 Ry

     iteration #  8     ecut=    40.00 Ry     beta= 0.20
     Davidson diagonalization with overlap
     ethr =  3.43E-08,  avg # of iterations =  2.0

     negative rho (up, down):  9.791E-03 0.000E+00

     total cpu time spent up to now is     1064.0 secs

     total energy              =   -1435.99411593 Ry
     Harris-Foulkes estimate   =   -1435.99410486 Ry
     estimated scf accuracy    <       0.00005470 Ry

     iteration #  9     ecut=    40.00 Ry     beta= 0.20
     Davidson diagonalization with overlap
     ethr =  1.75E-08,  avg # of iterations =  2.0

     negative rho (up, down):  9.784E-03 0.000E+00

     total cpu time spent up to now is     1141.3 secs

     total energy              =   -1435.99413078 Ry
     Harris-Foulkes estimate   =   -1435.99412004 Ry
     estimated scf accuracy    <       0.00000891 Ry

     iteration # 10     ecut=    40.00 Ry     beta= 0.20
     Davidson diagonalization with overlap
     ethr =  2.86E-09,  avg # of iterations =  2.0

     negative rho (up, down):  9.821E-03 0.000E+00

     total cpu time spent up to now is     1221.6 secs

     total energy              =   -1435.99413963 Ry
     Harris-Foulkes estimate   =   -1435.99413261 Ry
     estimated scf accuracy    <       0.00000097 Ry

     iteration # 11     ecut=    40.00 Ry     beta= 0.20
     Davidson diagonalization with overlap
     ethr =  3.12E-10,  avg # of iterations =  3.0

     negative rho (up, down):  9.881E-03 0.000E+00

     total cpu time spent up to now is     1318.0 secs

     total energy              =   -1435.99414434 Ry
     Harris-Foulkes estimate   =   -1435.99413977 Ry
     estimated scf accuracy    <       0.00000014 Ry

     iteration # 12     ecut=    40.00 Ry     beta= 0.20
     Davidson diagonalization with overlap
     ethr =  4.62E-11,  avg # of iterations =  2.0

     negative rho (up, down):  1.038E-02 0.000E+00

     total cpu time spent up to now is     1412.2 secs

     End of self-consistent calculation

          k = 0.1667 0.0953-0.1616 ( 66687 PWs)   bands (ev):

   -26.9941 -23.8697 -23.6947 -23.4896 -23.3139 -23.2113 -23.0756 -23.0517
   -22.9492 -22.9103 -22.8785 -22.7300 -22.5913 -22.5692 -22.5147 -22.4159
   -22.3502 -22.3010 -22.1215 -22.0754 -22.0469 -22.0092 -21.9677 -21.9487
   -21.9307 -21.9212 -21.8757 -21.8644 -21.7797 -21.7255 -21.6910 -21.5924
   -21.5715 -21.5366 -21.4849 -21.4486 -21.3435 -21.2863 -21.2492 -13.4517
   -13.2656 -12.4478 -12.2890 -12.0082 -11.7231 -11.4867 -11.4552 -11.3111
   -11.1952 -11.1484 -11.0715 -10.9851 -10.7989 -10.7178 -10.6757 -10.5143
   -10.4845 -10.3852 -10.3520 -10.3155 -10.0310  -9.8645  -9.7625  -9.6923
    -9.5834  -9.4147  -9.3670  -9.2770  -9.2331  -9.1628  -9.1120  -9.0930
    -9.0578  -9.0157  -8.9523  -8.8798  -8.8463  -8.7659  -8.7285  -8.6369
    -8.5745  -8.4085  -8.3139  -8.1922  -8.1093  -8.0243  -7.9943  -7.7999
    -7.7375  -7.6961  -7.5826  -7.4926  -7.4316  -7.3623  -7.2636  -7.2268
    -7.1970  -7.1285  -6.9756  -6.8946  -6.8414  -6.8089  -6.7430  -6.6678
    -6.6393  -6.6166  -6.5615  -6.5297  -6.4920  -6.4708  -6.4176  -6.3592
    -6.3388  -6.2928  -6.2468  -6.1770  -6.1490  -6.1244  -6.0741  -6.0016
    -5.9626  -5.9016  -5.8819  -5.8384  -5.8152  -5.7766  -5.7258  -5.7107
    -5.6823  -5.6604  -5.6363  -5.5827  -5.5497  -5.5057  -5.4436  -5.3616
    -5.3391  -5.3002  -5.2710  -5.2542  -5.1972  -5.1721  -5.1358  -5.0878
    -5.0378  -4.9994  -4.9623  -4.8885  -4.8643  -4.7825  -4.7781  -4.7409
    -4.6530  -4.6299  -4.5643  -4.5083   0.8627   1.8030   2.0294   2.5052
     2.5816   2.7675   2.8486   2.9514   2.9940   3.1540   3.2456   3.3382
     3.5093   3.5335   3.6480   3.6921   3.8593   3.8792   3.9359   3.9857
     4.0881   4.1364   4.2501   4.3107   4.3485   4.3822   4.4300   4.4714
     4.5082   4.5552   4.5941   4.6584   4.6836   4.7597   4.7875   4.8104
     4.8395   4.8705   4.9370   4.9904   5.0274   5.0447   5.0964   5.1351
     5.1589   5.1863   5.2282   5.2765   5.3030   5.3334   5.3499   5.4097
     5.4804   5.4952   5.5225   5.6210   5.6345   5.7206   5.7524   5.7831
     5.8221   5.9022   5.9354   5.9792   6.0229   6.0758   6.1113   6.1685
     6.1760   6.2261   6.2394   6.2886   6.3196   6.3694   6.4017   6.4329
     6.4858   6.5463   6.5963   6.6168   6.6747   6.7291   6.7603   6.7877
     6.8473   6.8730   6.9347   7.0019   7.0532   7.0701   7.1081   7.1648
     7.2126   7.2499   7.2955   7.3349   7.3709   7.3973   7.4386   7.4622
     7.4963   7.5406   7.5682   7.5857   7.6531   7.6973   7.7383   7.8098
     7.8266   7.8758   7.9104   7.9865   8.0073   8.0270   8.0734   8.0962
     8.1316   8.1825   8.2211   8.2341   8.2682   8.2882   8.3373   8.3595
     8.3933   8.4358   8.4567   8.5189   8.5573   8.5826   8.6088   8.6631
     8.7094   8.7445   8.7746   8.8045   8.8703   8.8989   8.9304   8.9848
     9.0232   9.0563   9.0876   9.1613   9.1643   9.2042   9.2559   9.2607
     9.2893   9.3238   9.3437   9.3889   9.4259   9.4743   9.4897   9.5095

          k = 0.1667 0.2873-0.1562 ( 66741 PWs)   bands (ev):

   -26.9941 -23.8414 -23.6845 -23.4797 -23.4269 -23.2418 -23.0789 -23.0523
   -22.9356 -22.8891 -22.7930 -22.6805 -22.6103 -22.5922 -22.5307 -22.3650
   -22.3393 -22.3054 -22.1448 -22.1002 -22.0536 -22.0120 -21.9880 -21.9535
   -21.9247 -21.9171 -21.8838 -21.8634 -21.7761 -21.7337 -21.6943 -21.6112
   -21.5704 -21.5175 -21.4741 -21.4482 -21.3472 -21.2791 -21.2481 -13.4501
   -13.1720 -12.4625 -12.3731 -12.1577 -11.7033 -11.4811 -11.4588 -11.2930
   -11.2114 -11.1487 -11.0611 -10.9830 -10.7575 -10.6807 -10.6392 -10.5404
   -10.4655 -10.3886 -10.3565 -10.2936  -9.9500  -9.8166  -9.7601  -9.6509
    -9.6166  -9.4317  -9.3951  -9.2993  -9.2571  -9.1972  -9.1466  -9.0906
    -9.0583  -9.0132  -8.9940  -8.8952  -8.8572  -8.8009  -8.7238  -8.6596
    -8.5799  -8.3848  -8.2825  -8.2038  -8.0804  -7.9696  -7.9189  -7.7879
    -7.7526  -7.6520  -7.5529  -7.4502  -7.3767  -7.3052  -7.2834  -7.2129
    -7.1859  -7.1017  -6.9977  -6.9303  -6.8542  -6.7805  -6.7546  -6.7183
    -6.6795  -6.6341  -6.5744  -6.5471  -6.5295  -6.4924  -6.4345  -6.3781
    -6.3485  -6.3231  -6.2578  -6.1874  -6.1403  -6.1261  -6.1041  -6.0141
    -5.9706  -5.9236  -5.8644  -5.8333  -5.8194  -5.7740  -5.7367  -5.7027
    -5.6894  -5.6687  -5.6275  -5.5420  -5.5298  -5.5006  -5.4568  -5.3624
    -5.3106  -5.2763  -5.2642  -5.2454  -5.2251  -5.1762  -5.1420  -5.1099
    -5.0406  -5.0119  -4.9544  -4.9105  -4.8872  -4.7855  -4.7565  -4.7413
    -4.6546  -4.6268  -4.5664  -4.5109   1.0363   1.9171   2.0186   2.3007
     2.5687   2.8311   2.8802   2.9468   2.9934   3.0792   3.2282   3.3328
     3.4946   3.6180   3.6987   3.7572   3.8337   3.8587   3.9076   3.9778
     4.0409   4.1185   4.1509   4.2100   4.3109   4.3533   4.3964   4.4353
     4.5033   4.5362   4.6371   4.6619   4.6865   4.7092   4.7366   4.7735
     4.8009   4.8471   4.8875   4.9671   5.0000   5.0388   5.0673   5.1132
     5.1325   5.1835   5.2182   5.2691   5.3099   5.3376   5.4084   5.4387
     5.5207   5.5729   5.6159   5.6394   5.6787   5.7400   5.7626   5.8023
     5.8307   5.8618   5.9201   5.9496   5.9957   6.0719   6.1127   6.1452
     6.1605   6.2029   6.2592   6.3053   6.3326   6.3838   6.4569   6.5248
     6.5563   6.5724   6.6217   6.7084   6.7415   6.7778   6.8097   6.8569
     6.9048   6.9548   7.0489   7.0657   7.0977   7.1211   7.1538   7.2192
     7.2396   7.2976   7.3289   7.3958   7.4287   7.4605   7.5236   7.5509
     7.5618   7.6461   7.6715   7.6967   7.7544   7.7793   7.8015   7.8328
     7.8895   7.9356   7.9424   7.9856   8.0229   8.0660   8.0937   8.1392
     8.1608   8.2121   8.2597   8.2827   8.3318   8.3511   8.3690   8.3842
     8.4148   8.4439   8.4682   8.4877   8.5156   8.5627   8.5928   8.6198
     8.6529   8.6928   8.7273   8.7534   8.7937   8.8334   8.8742   8.8905
     8.9306   8.9678   9.0064   9.0445   9.0603   9.0945   9.1207   9.1660
     9.2121   9.2518   9.2702   9.3184   9.3370   9.3768   9.3996   9.4335

          k = 0.1667 0.4793-0.1509 ( 66775 PWs)   bands (ev):

   -26.9940 -23.8074 -23.6508 -23.5601 -23.4340 -23.3060 -23.0762 -23.0556
   -22.9026 -22.8464 -22.7791 -22.6796 -22.6320 -22.5533 -22.4547 -22.3923
   -22.3362 -22.2637 -22.2512 -22.1244 -22.0363 -22.0163 -21.9851 -21.9615
   -21.9245 -21.9110 -21.8906 -21.8617 -21.7731 -21.7449 -21.6927 -21.6246
   -21.5766 -21.4929 -21.4777 -21.4430 -21.3503 -21.2736 -21.2463 -13.4492
   -12.9955 -12.7105 -12.3231 -12.2293 -11.6752 -11.5283 -11.4869 -11.2827
   -11.2225 -11.1385 -11.0577 -10.9748 -10.7285 -10.6701 -10.6257 -10.5684
   -10.4397 -10.4016 -10.3055 -10.1790  -9.8952  -9.8175  -9.7621  -9.6629
    -9.5201  -9.4778  -9.4148  -9.3483  -9.3007  -9.2782  -9.1917  -9.1104
    -9.0474  -9.0141  -8.9801  -8.9376  -8.8481  -8.8358  -8.7245  -8.6662
    -8.5683  -8.3604  -8.2564  -8.1633  -8.0699  -7.9343  -7.8328  -7.7800
    -7.7465  -7.5950  -7.5400  -7.4939  -7.3595  -7.2832  -7.2413  -7.1958
    -7.1022  -7.0676  -7.0014  -6.9505  -6.8842  -6.8449  -6.7782  -6.7198
    -6.6995  -6.6512  -6.6079  -6.5816  -6.5467  -6.5037  -6.4450  -6.3937
    -6.3557  -6.3281  -6.2895  -6.2334  -6.1579  -6.1405  -6.1036  -6.0152
    -6.0072  -5.9007  -5.8581  -5.8271  -5.8034  -5.7890  -5.7409  -5.7207
    -5.6905  -5.6499  -5.6092  -5.5459  -5.5052  -5.4728  -5.4300  -5.3542
    -5.3429  -5.2983  -5.2513  -5.2446  -5.2251  -5.1558  -5.1345  -5.1229
    -5.0600  -5.0076  -4.9981  -4.9385  -4.8760  -4.7944  -4.7382  -4.7251
    -4.6669  -4.6181  -4.5661  -4.5190   1.3358   1.6866   2.1716   2.3926
     2.4810   2.6311   2.7485   3.0664   3.1251   3.1716   3.2754   3.3661
     3.3718   3.4694   3.5604   3.7470   3.8064   3.8945   3.9409   3.9632
     4.0303   4.0994   4.2178   4.2705   4.3190   4.3651   4.4007   4.4470
     4.4817   4.5022   4.5563   4.5961   4.6126   4.6539   4.7307   4.7921
     4.8191   4.8435   4.8911   4.9282   4.9666   5.0146   5.0225   5.0944
     5.1437   5.1666   5.2193   5.2381   5.3198   5.4031   5.4233   5.4542
     5.4979   5.5315   5.5647   5.5879   5.6720   5.6951   5.7206   5.7674
     5.7957   5.8111   5.8944   5.9243   5.9895   6.0717   6.1470   6.1854
     6.2276   6.2954   6.3286   6.4025   6.4601   6.4799   6.5096   6.5828
     6.6418   6.6618   6.7064   6.7554   6.8117   6.8804   6.9045   6.9576
     6.9693   7.0418   7.0832   7.1163   7.1493   7.1706   7.2013   7.2745
     7.3482   7.3683   7.4294   7.4472   7.4899   7.5212   7.5700   7.6015
     7.6370   7.7023   7.7229   7.7458   7.8186   7.8266   7.8509   7.8949
     7.9675   7.9878   8.0140   8.0244   8.0480   8.0929   8.1067   8.1180
     8.1693   8.1910   8.2223   8.2422   8.2983   8.3141   8.3402   8.3680
     8.3854   8.4262   8.4419   8.4854   8.5080   8.5191   8.5565   8.5847
     8.6034   8.6486   8.6780   8.7042   8.7521   8.7857   8.8520   8.8664
     8.9199   8.9237   8.9710   8.9749   9.0322   9.0594   9.0811   9.1150
     9.1267   9.1858   9.2298   9.2449   9.2638   9.3130   9.3366   9.3858

          k = 0.1667-0.4806-0.1778 ( 66775 PWs)   bands (ev):

   -26.9941 -23.8084 -23.6512 -23.5577 -23.4100 -23.3440 -23.0729 -23.0560
   -22.8748 -22.8372 -22.7722 -22.7366 -22.5903 -22.5399 -22.4806 -22.4394
   -22.3147 -22.2648 -22.2209 -22.1295 -22.0337 -22.0272 -21.9858 -21.9589
   -21.9184 -21.9117 -21.8950 -21.8599 -21.7788 -21.7382 -21.6904 -21.6276
   -21.5775 -21.4985 -21.4713 -21.4436 -21.3499 -21.2755 -21.2453 -13.4494
   -12.9774 -12.7348 -12.4099 -12.0895 -11.6740 -11.5939 -11.4827 -11.2924
   -11.2149 -11.1335 -11.0597 -10.9608 -10.7404 -10.6971 -10.6385 -10.5743
   -10.4291 -10.3874 -10.2567 -10.0845 -10.0157  -9.8382  -9.7522  -9.5790
    -9.5576  -9.4841  -9.3997  -9.3808  -9.3311  -9.2855  -9.1878  -9.1169
    -9.0479  -8.9930  -8.9740  -8.9448  -8.8459  -8.8201  -8.7590  -8.6555
    -8.5697  -8.3489  -8.2384  -8.1152  -8.0602  -7.9256  -7.8149  -7.7832
    -7.7506  -7.6614  -7.5725  -7.5175  -7.4120  -7.2925  -7.2135  -7.1495
    -7.1233  -7.0381  -6.9833  -6.9500  -6.8758  -6.8492  -6.7763  -6.7124
    -6.6708  -6.6317  -6.6253  -6.5787  -6.5315  -6.5099  -6.4552  -6.4115
    -6.3885  -6.3223  -6.3000  -6.2506  -6.1568  -6.1338  -6.1016  -6.0473
    -6.0036  -5.8845  -5.8706  -5.8307  -5.7985  -5.7578  -5.7339  -5.7029
    -5.6885  -5.6313  -5.6119  -5.5584  -5.5246  -5.4560  -5.4297  -5.3593
    -5.3326  -5.2927  -5.2855  -5.2350  -5.2151  -5.1697  -5.1379  -5.0924
    -5.0786  -5.0350  -4.9767  -4.9526  -4.8645  -4.7976  -4.7408  -4.7091
    -4.6801  -4.6134  -4.5610  -4.5254   1.3195   1.7082   2.1703   2.4163
     2.4930   2.6282   2.7165   3.0013   3.0911   3.2204   3.2738   3.3655
     3.4157   3.5348   3.5673   3.7301   3.7835   3.8628   3.9282   3.9775
     4.0185   4.1010   4.1899   4.2698   4.2937   4.3588   4.3853   4.4458
     4.4945   4.5436   4.5580   4.6073   4.6579   4.6768   4.7161   4.7511
     4.7819   4.8562   4.8975   4.9372   4.9680   5.0000   5.0511   5.0888
     5.1766   5.2151   5.2501   5.2744   5.3213   5.3580   5.3825   5.4446
     5.4663   5.5157   5.5616   5.5892   5.6279   5.6965   5.7248   5.7617
     5.7866   5.8677   5.8964   5.9699   6.0364   6.0777   6.1078   6.1647
     6.2402   6.2524   6.3621   6.3998   6.4244   6.4709   6.5221   6.5867
     6.6150   6.6652   6.7030   6.7461   6.7789   6.8550   6.9044   6.9338
     6.9925   7.0425   7.0603   7.1278   7.1671   7.2336   7.2516   7.2874
     7.3261   7.3516   7.3862   7.4469   7.4734   7.5249   7.5727   7.6338
     7.6488   7.6803   7.7099   7.7432   7.7797   7.8130   7.8608   7.9002
     7.9368   7.9622   8.0051   8.0292   8.0490   8.0804   8.1159   8.1435
     8.1873   8.2010   8.2254   8.2587   8.2983   8.3359   8.3526   8.3733
     8.3997   8.4273   8.4618   8.4740   8.4942   8.5123   8.5531   8.5987
     8.6578   8.6709   8.7070   8.7341   8.7482   8.7829   8.8162   8.8437
     8.8977   8.9045   8.9399   8.9892   9.0354   9.0556   9.0940   9.1371
     9.1677   9.1962   9.2267   9.2448   9.2814   9.3092   9.3322   9.3798

          k = 0.1667-0.2886-0.1724 ( 66739 PWs)   bands (ev):

   -26.9941 -23.8429 -23.6836 -23.4686 -23.4108 -23.2999 -23.0708 -23.0528
   -22.8960 -22.8325 -22.8188 -22.7420 -22.6116 -22.5551 -22.5031 -22.4784
   -22.3291 -22.2418 -22.1345 -22.1209 -22.0505 -22.0237 -21.9820 -21.9505
   -21.9219 -21.9150 -21.8902 -21.8588 -21.7814 -21.7249 -21.6925 -21.6158
   -21.5726 -21.5205 -21.4722 -21.4467 -21.3463 -21.2829 -21.2462 -13.4505
   -13.1598 -12.4994 -12.4544 -11.9212 -11.7161 -11.6432 -11.4599 -11.3007
   -11.1902 -11.1350 -11.0692 -10.9502 -10.7916 -10.7170 -10.6738 -10.5526
   -10.4273 -10.3588 -10.2778 -10.2116 -10.0375  -9.8541  -9.7534  -9.6693
    -9.5443  -9.4311  -9.4034  -9.3328  -9.3005  -9.2476  -9.1431  -9.0897
    -9.0520  -8.9953  -8.9641  -8.9181  -8.8440  -8.8063  -8.7407  -8.6493
    -8.5625  -8.3815  -8.2198  -8.1386  -8.0554  -7.9800  -7.8912  -7.8323
    -7.7740  -7.6973  -7.6335  -7.5142  -7.4074  -7.3003  -7.2494  -7.1888
    -7.1362  -7.0657  -6.9973  -6.9434  -6.8492  -6.7921  -6.7558  -6.6894
    -6.6494  -6.6220  -6.5653  -6.5404  -6.5079  -6.4891  -6.4390  -6.4136
    -6.3955  -6.3134  -6.2880  -6.2369  -6.1513  -6.1296  -6.0870  -6.0508
    -5.9925  -5.9041  -5.8703  -5.8175  -5.7897  -5.7455  -5.7259  -5.6928
    -5.6731  -5.6405  -5.6049  -5.5556  -5.5182  -5.4866  -5.4539  -5.3872
    -5.3380  -5.3087  -5.2860  -5.2429  -5.2085  -5.1537  -5.1179  -5.0974
    -5.0825  -5.0417  -4.9477  -4.9163  -4.8552  -4.8013  -4.7604  -4.7170
    -4.6802  -4.6135  -4.5576  -4.5221   1.0264   1.9189   2.0266   2.3604
     2.5733   2.8143   2.8592   2.8906   2.9638   3.0762   3.1407   3.4692
     3.5893   3.6721   3.7391   3.7710   3.8005   3.8212   3.8557   3.9158
     3.9577   4.0821   4.1805   4.1915   4.3334   4.3578   4.4264   4.4815
     4.5015   4.5507   4.5792   4.6467   4.6644   4.7015   4.7626   4.7814
     4.8287   4.8831   4.8957   4.9380   4.9777   5.0163   5.0728   5.1365
     5.1653   5.2068   5.2466   5.2685   5.3568   5.3864   5.4278   5.4875
     5.5132   5.5430   5.5898   5.6184   5.6616   5.6883   5.7179   5.7614
     5.8252   5.8806   5.9103   5.9411   5.9883   6.0783   6.1322   6.1521
     6.1819   6.2182   6.2890   6.3163   6.3537   6.3802   6.4347   6.5076
     6.5242   6.5999   6.6106   6.6708   6.7092   6.7762   6.8004   6.8459
     6.9040   6.9624   6.9917   7.0319   7.0572   7.0985   7.1718   7.2060
     7.2875   7.3233   7.3580   7.3746   7.4451   7.4706   7.5205   7.5450
     7.5676   7.6321   7.6635   7.7086   7.7343   7.7609   7.8253   7.8509
     7.8897   7.9481   7.9751   8.0065   8.0342   8.0868   8.1125   8.1397
     8.1721   8.2104   8.2439   8.2527   8.2863   8.3167   8.3370   8.3879
     8.4400   8.4587   8.4777   8.5033   8.5454   8.5568   8.5798   8.6161
     8.6643   8.6844   8.7290   8.7599   8.7985   8.8255   8.8438   8.9071
     8.9600   8.9993   9.0326   9.0768   9.0858   9.1291   9.1552   9.1865
     9.2476   9.2702   9.3108   9.3291   9.3585   9.3894   9.4132   9.4625

          k = 0.1667-0.0966-0.1670 ( 66677 PWs)   bands (ev):

   -26.9941 -23.8703 -23.6942 -23.4834 -23.3074 -23.2436 -23.0707 -23.0518
   -22.9274 -22.8947 -22.8711 -22.7652 -22.5894 -22.5508 -22.5155 -22.4449
   -22.3649 -22.2671 -22.1162 -22.0908 -22.0418 -22.0175 -21.9654 -21.9433
   -21.9304 -21.9174 -21.8818 -21.8599 -21.7808 -21.7224 -21.6909 -21.5947
   -21.5723 -21.5371 -21.4858 -21.4470 -21.3431 -21.2882 -21.2483 -13.4520
   -13.2613 -12.4807 -12.3004 -11.8834 -11.7266 -11.6117 -11.4509 -11.3013
   -11.1794 -11.1402 -11.0786 -10.9689 -10.8152 -10.7260 -10.7005 -10.5267
   -10.4467 -10.3724 -10.3320 -10.2821 -10.0543  -9.8811  -9.7610  -9.7088
    -9.5566  -9.4109  -9.3639  -9.2924  -9.2562  -9.1907  -9.1388  -9.0796
    -9.0245  -8.9939  -8.9702  -8.8855  -8.8508  -8.7873  -8.7038  -8.6284
    -8.5515  -8.4188  -8.2991  -8.1419  -8.0973  -8.0464  -8.0011  -7.8111
    -7.7644  -7.6979  -7.6132  -7.5094  -7.4343  -7.3537  -7.2733  -7.2358
    -7.1851  -7.0566  -6.9630  -6.9231  -6.8404  -6.8313  -6.7386  -6.6572
    -6.6428  -6.6085  -6.5505  -6.5197  -6.4870  -6.4790  -6.4135  -6.3810
    -6.3172  -6.2887  -6.2668  -6.2169  -6.1639  -6.1368  -6.0552  -6.0267
    -5.9717  -5.9065  -5.8826  -5.8156  -5.7896  -5.7670  -5.7276  -5.6915
    -5.6690  -5.6465  -5.6254  -5.5846  -5.5468  -5.5081  -5.4544  -5.3655
    -5.3441  -5.3197  -5.2738  -5.2524  -5.1998  -5.1663  -5.1305  -5.0876
    -5.0466  -5.0264  -4.9425  -4.8855  -4.8400  -4.8083  -4.7773  -4.7308
    -4.6676  -4.6197  -4.5605  -4.5131   0.8594   1.8026   2.0313   2.5311
     2.6512   2.7435   2.7913   2.9056   2.9815   3.1563   3.2024   3.4002
     3.5141   3.5857   3.6754   3.7145   3.8246   3.8788   3.9217   3.9591
     4.0637   4.1032   4.2592   4.3014   4.3335   4.3899   4.4661   4.4884
     4.5433   4.5762   4.6005   4.6252   4.6772   4.7145   4.7493   4.8162
     4.8612   4.8915   4.9226   4.9759   5.0049   5.0721   5.0918   5.1138
     5.1762   5.2191   5.2447   5.2909   5.3173   5.3660   5.3736   5.4239
     5.4673   5.5282   5.5393   5.5910   5.6385   5.6959   5.7297   5.7911
     5.8291   5.8736   5.9092   5.9702   6.0011   6.0600   6.0963   6.1355
     6.1798   6.1925   6.2487   6.2912   6.3288   6.4236   6.4529   6.4861
     6.5206   6.5471   6.5609   6.6093   6.6438   6.6988   6.7531   6.7983
     6.8469   6.8658   6.9199   6.9805   7.0026   7.0558   7.1079   7.1568
     7.1947   7.2396   7.3041   7.3488   7.3815   7.4080   7.4393   7.4649
     7.5034   7.5575   7.5973   7.6247   7.6897   7.7217   7.7544   7.7968
     7.8259   7.8693   7.9125   7.9312   7.9807   7.9971   8.0690   8.0868
     8.1267   8.1506   8.1942   8.2241   8.2611   8.3042   8.3394   8.3816
     8.4007   8.4402   8.4500   8.5008   8.5578   8.5868   8.6343   8.6773
     8.7444   8.7674   8.8042   8.8648   8.8839   8.9198   8.9626   8.9969
     9.0135   9.0621   9.1099   9.1287   9.1746   9.2019   9.2241   9.2733
     9.3218   9.3463   9.3648   9.3885   9.4309   9.4530   9.4794   9.5137

          k =-0.5000 0.0979-0.3376 ( 66700 PWs)   bands (ev):

   -26.9941 -23.8162 -23.6914 -23.6357 -23.2222 -23.1751 -23.0784 -23.0525
   -22.9678 -22.9333 -22.8749 -22.8033 -22.5938 -22.5400 -22.4697 -22.3416
   -22.2827 -22.2629 -22.2084 -22.1423 -22.0533 -22.0183 -21.9656 -21.9508
   -21.9373 -21.9244 -21.8859 -21.8701 -21.7899 -21.7294 -21.6812 -21.6065
   -21.5715 -21.5190 -21.4709 -21.4448 -21.3464 -21.2763 -21.2551 -13.4504
   -12.9808 -12.9455 -12.0892 -11.9921 -11.7190 -11.4951 -11.4515 -11.3004
   -11.2147 -11.1414 -11.0561 -10.9439 -10.8374 -10.7890 -10.7397 -10.5502
   -10.4445 -10.3927 -10.3499 -10.1492 -10.0619  -9.8432  -9.7510  -9.6137
    -9.4673  -9.4385  -9.4126  -9.3391  -9.2503  -9.1960  -9.1492  -9.1237
    -9.0676  -9.0403  -8.9382  -8.8801  -8.8739  -8.8039  -8.7343  -8.6182
    -8.5558  -8.4448  -8.3297  -8.2104  -8.0870  -8.0231  -8.0060  -7.8353
    -7.7587  -7.6864  -7.5968  -7.5278  -7.4624  -7.3339  -7.2763  -7.1496
    -7.0742  -6.9843  -6.9134  -6.8677  -6.8362  -6.7980  -6.7356  -6.6548
    -6.6379  -6.6098  -6.5863  -6.5697  -6.5366  -6.4857  -6.3828  -6.3576
    -6.3149  -6.2627  -6.2500  -6.2089  -6.1610  -6.1071  -6.0647  -6.0153
    -5.9675  -5.9332  -5.8891  -5.8528  -5.8297  -5.7864  -5.7453  -5.7199
    -5.6692  -5.6328  -5.6144  -5.5829  -5.5598  -5.5041  -5.4373  -5.3856
    -5.3485  -5.3157  -5.2885  -5.2565  -5.2322  -5.1989  -5.1344  -5.0781
    -5.0520  -5.0001  -4.9452  -4.9122  -4.8464  -4.8229  -4.7868  -4.7346
    -4.6808  -4.6073  -4.5496  -4.5163   1.2646   1.4035   2.1552   2.2230
     2.5686   2.6632   3.0000   3.0409   3.0850   3.2247   3.3147   3.3377
     3.3893   3.4453   3.5928   3.6475   3.7105   3.8400   3.9843   4.0294
     4.0839   4.1386   4.1878   4.2293   4.2788   4.4217   4.4585   4.5119
     4.5377   4.5960   4.6504   4.6868   4.7193   4.7770   4.8208   4.8469
     4.8964   4.9309   4.9855   5.0061   5.0537   5.0688   5.1132   5.1461
     5.2099   5.2302   5.2475   5.2756   5.3255   5.3531   5.4075   5.4517
     5.4915   5.5786   5.5959   5.6129   5.6758   5.7062   5.7303   5.7717
     5.8268   5.8555   5.8835   5.8962   5.9496   5.9810   6.0440   6.0843
     6.1312   6.1623   6.1987   6.2682   6.3193   6.3760   6.4121   6.5082
     6.5241   6.5907   6.6011   6.6317   6.6945   6.7322   6.7849   6.8530
     6.9176   6.9358   6.9713   7.0278   7.0834   7.1251   7.1674   7.1976
     7.2207   7.2888   7.3372   7.3444   7.3893   7.4254   7.4558   7.5048
     7.5339   7.5882   7.6129   7.6384   7.7054   7.7215   7.7425   7.8215
     7.8732   7.8951   7.9270   7.9695   7.9892   8.0273   8.0449   8.0731
     8.0917   8.1006   8.1429   8.1868   8.2138   8.2488   8.2651   8.3197
     8.3432   8.3692   8.3859   8.4047   8.4418   8.4805   8.5191   8.5382
     8.5810   8.6115   8.6534   8.6949   8.7419   8.7842   8.8116   8.8228
     8.8631   8.9020   8.9594   8.9996   9.0385   9.0817   9.1027   9.1504
     9.1939   9.2540   9.2805   9.2980   9.3466   9.4387   9.4581   9.4864

          k =-0.5000 0.2899-0.3322 ( 66721 PWs)   bands (ev):

   -26.9941 -23.7999 -23.6576 -23.6163 -23.3583 -23.3068 -23.0779 -23.0507
   -22.8673 -22.8266 -22.8024 -22.7560 -22.6453 -22.5645 -22.4401 -22.3480
   -22.3344 -22.2966 -22.2114 -22.1328 -22.0408 -22.0275 -21.9752 -21.9510
   -21.9364 -21.9152 -21.8860 -21.8739 -21.7879 -21.7354 -21.6828 -21.6297
   -21.5669 -21.5059 -21.4679 -21.4412 -21.3492 -21.2708 -21.2531 -13.4498
   -12.9044 -12.8526 -12.2936 -12.1735 -11.6979 -11.4903 -11.4540 -11.2710
   -11.1880 -11.1568 -11.0468 -10.9637 -10.7924 -10.7172 -10.6533 -10.5281
   -10.4608 -10.3735 -10.3292 -10.2186  -9.9940  -9.8441  -9.7384  -9.6028
    -9.4776  -9.4283  -9.3884  -9.3476  -9.2776  -9.2571  -9.1819  -9.1346
    -9.0722  -9.0320  -8.9607  -8.9307  -8.8956  -8.8027  -8.7412  -8.6683
    -8.5770  -8.4175  -8.2338  -8.1602  -8.0782  -7.9969  -7.9374  -7.8420
    -7.7710  -7.6999  -7.5624  -7.4935  -7.4074  -7.3106  -7.1961  -7.1508
    -7.0403  -6.9832  -6.9194  -6.9010  -6.8629  -6.8171  -6.7408  -6.6847
    -6.6725  -6.6188  -6.5927  -6.5657  -6.5364  -6.5292  -6.4236  -6.3944
    -6.3478  -6.3075  -6.2634  -6.1992  -6.1573  -6.1292  -6.0903  -6.0053
    -5.9843  -5.9180  -5.8783  -5.8500  -5.8131  -5.7895  -5.7455  -5.7131
    -5.6866  -5.6622  -5.6075  -5.5549  -5.5107  -5.5028  -5.4241  -5.3949
    -5.3637  -5.3335  -5.3041  -5.2730  -5.2493  -5.1821  -5.1275  -5.0807
    -5.0338  -5.0079  -4.9686  -4.8963  -4.8482  -4.8158  -4.7910  -4.7294
    -4.6751  -4.6116  -4.5576  -4.5129   1.3940   1.5363   2.2385   2.3005
     2.4222   2.5466   2.7106   3.0869   3.1332   3.1680   3.2076   3.3867
     3.4752   3.5491   3.6722   3.7621   3.8319   3.9025   3.9700   4.0159
     4.0673   4.0913   4.1501   4.2215   4.2454   4.2895   4.3547   4.3873
     4.4703   4.5073   4.5686   4.6050   4.6288   4.6713   4.7424   4.7823
     4.8297   4.8706   4.8991   4.9181   4.9835   5.0248   5.0795   5.1081
     5.1250   5.2425   5.2803   5.3360   5.3653   5.4230   5.4758   5.5061
     5.5678   5.6202   5.6842   5.7519   5.7923   5.8249   5.8614   5.9155
     5.9364   5.9755   5.9974   6.0517   6.0681   6.0933   6.1512   6.1846
     6.1907   6.2340   6.2640   6.3228   6.3762   6.3853   6.4634   6.4948
     6.5483   6.6063   6.6823   6.7138   6.7432   6.7775   6.8330   6.8529
     6.8913   6.9186   6.9566   7.0013   7.0467   7.0756   7.0905   7.1556
     7.1953   7.2310   7.2532   7.2978   7.3424   7.3711   7.3892   7.3955
     7.4920   7.5008   7.5247   7.5961   7.6619   7.7119   7.7397   7.7560
     7.8404   7.8651   7.8924   7.9277   7.9677   7.9865   8.0513   8.0779
     8.1130   8.1477   8.1810   8.2342   8.2792   8.3173   8.3336   8.3863
     8.4462   8.4801   8.5001   8.5385   8.5709   8.5850   8.6160   8.6599
     8.7074   8.7215   8.7519   8.7658   8.7818   8.8153   8.8377   8.8623
     8.8895   8.9124   8.9471   9.0061   9.0147   9.0438   9.0599   9.1070
     9.1612   9.1743   9.2014   9.2365   9.2950   9.3162   9.3352   9.3789

          k =-0.5000 0.4819-0.3268 ( 66729 PWs)   bands (ev):

   -26.9940 -23.7828 -23.6009 -23.5685 -23.4809 -23.4218 -23.0761 -23.0540
   -22.8501 -22.7715 -22.7190 -22.6671 -22.6174 -22.5657 -22.4640 -22.4415
   -22.3883 -22.2925 -22.1870 -22.1452 -22.0406 -22.0185 -21.9819 -21.9668
   -21.9202 -21.9094 -21.8916 -21.8760 -21.7775 -21.7536 -21.6785 -21.6471
   -21.5702 -21.4878 -21.4704 -21.4370 -21.3519 -21.2645 -21.2520 -13.4493
   -12.7573 -12.6888 -12.5240 -12.4253 -11.6698 -11.5024 -11.4459 -11.2622
   -11.1967 -11.1626 -11.0349 -10.9880 -10.7479 -10.6614 -10.5663 -10.5384
   -10.4366 -10.3582 -10.3012 -10.1860 -10.0203  -9.8486  -9.7253  -9.5807
    -9.4603  -9.4576  -9.4149  -9.3795  -9.2768  -9.2451  -9.1822  -9.1545
    -9.0928  -9.0328  -9.0143  -8.9626  -8.9023  -8.7978  -8.7698  -8.7064
    -8.5916  -8.3847  -8.2062  -8.0804  -8.0218  -7.9980  -7.9135  -7.8167
    -7.7524  -7.6906  -7.6050  -7.4769  -7.2785  -7.2220  -7.1396  -7.1063
    -7.0725  -7.0220  -6.9781  -6.9339  -6.8487  -6.8128  -6.7670  -6.7291
    -6.6888  -6.6621  -6.6125  -6.5847  -6.5259  -6.5034  -6.4490  -6.4230
    -6.3959  -6.3490  -6.2682  -6.2001  -6.1771  -6.1421  -6.1014  -6.0541
    -5.9885  -5.8988  -5.8640  -5.8427  -5.8005  -5.7738  -5.7489  -5.7059
    -5.6823  -5.6680  -5.6365  -5.5635  -5.5191  -5.4766  -5.4109  -5.3851
    -5.3519  -5.3388  -5.3074  -5.2598  -5.2348  -5.1887  -5.1461  -5.1042
    -5.0489  -5.0000  -4.9702  -4.9161  -4.8419  -4.8173  -4.7803  -4.7117
    -4.6715  -4.6169  -4.5650  -4.5109   1.6038   1.7386   2.0542   2.2426
     2.4818   2.5447   2.6757   2.8101   2.9124   3.3262   3.3714   3.5069
     3.6053   3.6575   3.6623   3.7227   3.8032   3.8498   3.8839   3.9549
     4.0014   4.0459   4.1510   4.1969   4.2344   4.2936   4.3355   4.3672
     4.4207   4.4412   4.4659   4.5189   4.6062   4.6608   4.6895   4.7591
     4.8045   4.8581   4.8715   4.9109   4.9843   5.0013   5.0739   5.1253
     5.1446   5.2137   5.2563   5.2803   5.3579   5.4040   5.4440   5.4745
     5.5427   5.5969   5.6548   5.6718   5.7482   5.8409   5.8859   6.0134
     6.0319   6.0687   6.1140   6.1377   6.1965   6.2543   6.2735   6.3250
     6.3455   6.4026   6.4198   6.4668   6.4802   6.5362   6.5831   6.6011
     6.6635   6.6911   6.7035   6.7334   6.7740   6.7922   6.8414   6.8518
     6.8969   6.9188   6.9558   6.9805   7.0632   7.0901   7.1382   7.1633
     7.1926   7.2187   7.2602   7.3320   7.3597   7.3923   7.4150   7.4687
     7.4975   7.5344   7.5747   7.5984   7.6321   7.6575   7.7110   7.7268
     7.7677   7.8014   7.8467   7.8759   7.8863   7.9448   8.0051   8.0286
     8.0518   8.0996   8.1172   8.1460   8.1811   8.2292   8.2701   8.3204
     8.3313   8.4169   8.4319   8.4603   8.4823   8.5073   8.5402   8.5770
     8.6065   8.6400   8.6566   8.6732   8.7267   8.7885   8.8067   8.8482
     8.8818   8.9003   8.9580   8.9744   9.0161   9.0837   9.0989   9.1453
     9.1635   9.1776   9.2347   9.2479   9.2806   9.3414   9.3981   9.4142

     the Fermi energy is    -1.6909 ev

!    total energy              =   -1435.99415235 Ry
     Harris-Foulkes estimate   =   -1435.99414438 Ry
     estimated scf accuracy    <       0.00000008 Ry

     The total energy is the sum of the following terms:

     one-electron contribution =  -15562.37062595 Ry
     hartree contribution      =    7866.80978102 Ry
     xc contribution           =    -376.32388535 Ry
     ewald contribution        =    6635.89057793 Ry
     smearing contrib. (-TS)   =      -0.00000000 Ry

     convergence has been achieved in  12 iterations

     Writing output data file kaol.save/
 
     init_run     :     18.60s CPU     19.18s WALL (       1 calls)
     electrons    :    971.69s CPU   1393.33s WALL (       1 calls)

     Called by init_run:
     wfcinit      :     11.77s CPU     12.04s WALL (       1 calls)
     potinit      :      2.15s CPU      2.18s WALL (       1 calls)
     hinit0       :      3.33s CPU      3.39s WALL (       1 calls)

     Called by electrons:
     c_bands      :    775.00s CPU    991.61s WALL (      12 calls)
     sum_band     :    130.36s CPU    281.33s WALL (      12 calls)
     v_of_rho     :      4.07s CPU     11.03s WALL (      13 calls)
     newd         :     57.70s CPU     95.07s WALL (      13 calls)
     mix_rho      :      2.51s CPU      6.59s WALL (      12 calls)

     Called by c_bands:
     init_us_2    :      4.32s CPU     13.80s WALL (     225 calls)
     cegterg      :    658.56s CPU    724.46s WALL (     108 calls)

     Called by sum_band:
     sum_band:bec :      0.23s CPU      0.26s WALL (     108 calls)
     addusdens    :     12.44s CPU    148.27s WALL (      12 calls)

     Called by *egterg:
     h_psi        :    254.21s CPU    270.93s WALL (     572 calls)
     s_psi        :     43.84s CPU     50.80s WALL (     572 calls)
     g_psi        :      0.91s CPU      0.92s WALL (     455 calls)
     cdiaghg      :    196.35s CPU    212.28s WALL (     563 calls)

     Called by h_psi:
     h_psi:pot    :    252.30s CPU    262.15s WALL (     572 calls)
     h_psi:calbec :     48.86s CPU     52.25s WALL (     572 calls)
     vloc_psi     :    159.40s CPU    164.50s WALL (     572 calls)
     add_vuspsi   :     44.04s CPU     45.35s WALL (     572 calls)

     General routines
     calbec       :     66.09s CPU     69.94s WALL (     680 calls)
     fft          :     61.03s CPU     66.08s WALL (     167 calls)
     ffts         :      0.87s CPU      1.91s WALL (      25 calls)
     fftw         :    166.27s CPU    172.02s WALL (  201888 calls)
     interpolate  :      1.35s CPU      2.58s WALL (      13 calls)
 
     Parallel routines
     fft_scatt_xy :     28.84s CPU     29.44s WALL (  202080 calls)
     fft_scatt_yz :    110.51s CPU    119.35s WALL (  202080 calls)
 
     PWSCF        :  16m32.29s CPU  24m 8.90s WALL

 
   This run was terminated on:  16: 1: 8   1Oct2020            

=------------------------------------------------------------------------------=
   JOB DONE.
=------------------------------------------------------------------------------=
